<?xml version="1.0" encoding="UTF-8"?>

<!-- generated on 2025-07-24 10:55:12 by Eclipse SUMO GUI Version 1.18.0
<configuration xmlns:xsi="http://www.w3.org/2001/XMLSchema-instance" xsi:noNamespaceSchemaLocation="http://sumo.dlr.de/xsd/sumoConfiguration.xsd">

    <input>
        <net-file value="/home/snvc/2025-07-14-12-06-58/mod2/osm.net.xml.gz"/>
        <route-files value="/home/snvc/2025-07-14-12-06-58/mod2/osm.passenger.trips.xml"/>
        <additional-files value="/home/snvc/2025-07-14-12-06-58/mod2/output.add.xml"/>
    </input>

    <output>
        <tripinfo-output value="/home/snvc/2025-07-14-12-06-58/mod2/tripinfos.xml"/>
        <statistic-output value="/home/snvc/2025-07-14-12-06-58/mod2/stats.xml"/>
    </output>

    <processing>
        <ignore-route-errors value="true"/>
        <tls.actuated.jam-threshold value="30"/>
    </processing>

    <routing>
        <device.rerouting.adaptation-steps value="18"/>
        <device.rerouting.adaptation-interval value="10"/>
    </routing>

    <report>
        <verbose value="true"/>
        <duration-log.statistics value="true"/>
        <no-step-log value="true"/>
    </report>

    <gui_only>
        <gui-settings-file value="/home/snvc/2025-07-14-12-06-58/mod2/osm.view.xml"/>
    </gui_only>

</configuration>
-->

<tripinfos xmlns:xsi="http://www.w3.org/2001/XMLSchema-instance" xsi:noNamespaceSchemaLocation="http://sumo.dlr.de/xsd/tripinfo_file.xsd">
</tripinfos>
