<?xml version="1.0" encoding="UTF-8"?>

<!-- generated on 2025-07-14 12:07:19 by Eclipse SUMO GUI Version 1.23.1
<sumoConfiguration xmlns:xsi="http://www.w3.org/2001/XMLSchema-instance" xsi:noNamespaceSchemaLocation="http://sumo.dlr.de/xsd/sumoConfiguration.xsd">

    <input>
        <net-file value="/home/raquel/Sumo/2025-07-14-12-06-58/osm.net.xml.gz"/>
        <route-files value="/home/raquel/Sumo/2025-07-14-12-06-58/osm.passenger.trips.xml"/>
        <additional-files value="/home/raquel/Sumo/2025-07-14-12-06-58/output.add.xml"/>
    </input>

    <output>
        <tripinfo-output value="/home/raquel/Sumo/2025-07-14-12-06-58/tripinfos.xml"/>
        <statistic-output value="/home/raquel/Sumo/2025-07-14-12-06-58/stats.xml"/>
    </output>

    <processing>
        <ignore-route-errors value="true"/>
        <tls.actuated.jam-threshold value="30"/>
    </processing>

    <routing>
        <device.rerouting.adaptation-steps value="18"/>
        <device.rerouting.adaptation-interval value="10"/>
    </routing>

    <report>
        <verbose value="true"/>
        <duration-log.statistics value="true"/>
        <no-step-log value="true"/>
    </report>

    <gui_only>
        <gui-settings-file value="/home/raquel/Sumo/2025-07-14-12-06-58/osm.view.xml"/>
    </gui_only>

</sumoConfiguration>
-->

<meandata xmlns:xsi="http://www.w3.org/2001/XMLSchema-instance" xsi:noNamespaceSchemaLocation="http://sumo.dlr.de/xsd/meandata_file.xsd">
    <interval begin="0.00" end="544.00" id="wizard_example">
        <edge id="-1000927079" sampledSeconds="0.00" departed="0" arrived="0" entered="0" left="0" laneChangedFrom="0" laneChangedTo="0"/>
        <edge id="-1019254303" sampledSeconds="0.00" departed="0" arrived="0" entered="0" left="0" laneChangedFrom="0" laneChangedTo="0"/>
        <edge id="-1019254304" sampledSeconds="18.68" traveltime="4.17" overlapTraveltime="4.86" density="1.22" laneDensity="1.22" occupancy="0.55" waitingTime="2.00" timeLoss="10.69" speed="6.82" speedRelative="0.49" departed="1" arrived="0" entered="3" left="4" laneChangedFrom="0" laneChangedTo="0"/>
        <edge id="-1044163467#1" sampledSeconds="399.42" traveltime="10.51" overlapTraveltime="10.80" density="4.57" laneDensity="2.28" occupancy="1.08" waitingTime="0.00" timeLoss="175.02" speed="15.35" speedRelative="0.55" departed="1" arrived="0" entered="36" left="37" laneChangedFrom="4" laneChangedTo="4"/>
        <edge id="-1056895529#0" sampledSeconds="23.86" traveltime="2.40" overlapTraveltime="2.76" density="1.87" laneDensity="0.93" occupancy="0.40" waitingTime="0.00" timeLoss="14.83" speed="10.32" speedRelative="0.37" departed="2" arrived="0" entered="7" left="9" laneChangedFrom="0" laneChangedTo="0"/>
        <edge id="-1056895529#1" sampledSeconds="104.85" traveltime="12.53" overlapTraveltime="13.39" density="7.85" laneDensity="3.93" occupancy="1.88" waitingTime="69.00" timeLoss="95.79" speed="2.21" speedRelative="0.08" departed="1" arrived="0" entered="7" left="8" laneChangedFrom="0" laneChangedTo="0"/>
        <edge id="-1086372857#1" sampledSeconds="61.38" traveltime="3.51" overlapTraveltime="3.97" density="4.30" laneDensity="2.15" occupancy="0.87" waitingTime="0.00" timeLoss="40.05" speed="7.87" speedRelative="0.28" departed="0" arrived="0" entered="17" left="15" laneChangedFrom="1" laneChangedTo="1"/>
        <edge id="-1121908324#1" sampledSeconds="792.38" traveltime="22.34" overlapTraveltime="23.22" density="5.43" laneDensity="5.43" occupancy="2.65" waitingTime="66.00" timeLoss="439.93" speed="11.77" speedRelative="0.42" departed="1" arrived="0" entered="34" left="33" laneChangedFrom="0" laneChangedTo="0"/>
        <edge id="-1121908324#5" sampledSeconds="384.42" traveltime="10.75" overlapTraveltime="10.98" density="3.04" laneDensity="3.04" occupancy="1.48" waitingTime="0.00" timeLoss="77.51" speed="21.63" speedRelative="0.78" departed="0" arrived="0" entered="35" left="35" laneChangedFrom="0" laneChangedTo="0"/>
        <edge id="-1137958420" sampledSeconds="330.14" traveltime="27.03" overlapTraveltime="27.59" density="1.85" laneDensity="0.92" occupancy="0.45" waitingTime="0.00" timeLoss="28.46" speed="12.10" speedRelative="0.87" departed="0" arrived="0" entered="13" left="12" laneChangedFrom="10" laneChangedTo="10"/>
        <edge id="-1137958425" sampledSeconds="195.72" traveltime="14.62" overlapTraveltime="15.22" density="3.43" laneDensity="1.71" occupancy="0.83" waitingTime="0.00" timeLoss="25.89" speed="7.23" speedRelative="0.87" departed="3" arrived="0" entered="10" left="13" laneChangedFrom="3" laneChangedTo="3"/>
        <edge id="-1138018269" sampledSeconds="50.94" traveltime="4.84" overlapTraveltime="5.12" density="1.03" laneDensity="0.52" occupancy="0.25" waitingTime="0.00" timeLoss="8.13" speed="18.70" speedRelative="0.84" departed="1" arrived="0" entered="9" left="10" laneChangedFrom="0" laneChangedTo="0"/>
        <edge id="-113880132" sampledSeconds="124.14" traveltime="6.83" overlapTraveltime="7.02" density="1.32" laneDensity="0.66" occupancy="0.32" waitingTime="0.00" timeLoss="12.84" speed="25.38" speedRelative="0.91" departed="0" arrived="0" entered="18" left="17" laneChangedFrom="1" laneChangedTo="1"/>
        <edge id="-113880679#0" sampledSeconds="141.91" traveltime="8.82" overlapTraveltime="9.48" density="1.66" laneDensity="0.83" occupancy="0.39" waitingTime="1.00" timeLoss="53.15" speed="17.14" speedRelative="0.62" departed="1" arrived="0" entered="14" left="15" laneChangedFrom="0" laneChangedTo="0"/>
        <edge id="-113880679#1" sampledSeconds="60.07" traveltime="3.98" overlapTraveltime="4.27" density="1.21" laneDensity="0.61" occupancy="0.29" waitingTime="0.00" timeLoss="11.47" speed="22.49" speedRelative="0.81" departed="0" arrived="0" entered="15" left="14" laneChangedFrom="0" laneChangedTo="0"/>
        <edge id="-113880679#2" sampledSeconds="90.59" traveltime="4.76" overlapTraveltime="5.03" density="1.62" laneDensity="0.81" occupancy="0.38" waitingTime="0.00" timeLoss="20.17" speed="21.38" speedRelative="0.77" departed="0" arrived="2" entered="18" left="16" laneChangedFrom="0" laneChangedTo="0"/>
        <edge id="-1156001077" sampledSeconds="72.00" traveltime="75.24" overlapTraveltime="77.89" density="0.93" laneDensity="0.47" occupancy="0.23" waitingTime="56.00" timeLoss="62.58" speed="1.88" speedRelative="0.14" departed="1" arrived="0" entered="0" left="0" laneChangedFrom="0" laneChangedTo="0"/>
        <edge id="-1160122274" sampledSeconds="92.23" traveltime="7.38" overlapTraveltime="7.69" density="1.15" laneDensity="0.38" occupancy="0.18" waitingTime="0.00" timeLoss="24.79" speed="19.79" speedRelative="0.71" departed="0" arrived="0" entered="12" left="12" laneChangedFrom="2" laneChangedTo="2"/>
        <edge id="-117107052" sampledSeconds="62.06" traveltime="2.35" overlapTraveltime="4.14" density="6.20" laneDensity="6.20" occupancy="2.02" waitingTime="34.00" timeLoss="46.00" speed="5.65" speedRelative="0.25" departed="0" arrived="1" entered="15" left="14" laneChangedFrom="0" laneChangedTo="0"/>
        <edge id="-122193817" sampledSeconds="126.17" traveltime="20.37" overlapTraveltime="21.03" density="0.62" laneDensity="0.62" occupancy="0.30" waitingTime="15.00" timeLoss="40.15" speed="18.02" speedRelative="0.65" departed="0" arrived="0" entered="6" left="6" laneChangedFrom="0" laneChangedTo="0"/>
        <edge id="-1229272302#0" sampledSeconds="0.00" departed="0" arrived="0" entered="0" left="0" laneChangedFrom="0" laneChangedTo="0"/>
        <edge id="-1229272302#1" sampledSeconds="0.00" departed="0" arrived="0" entered="0" left="0" laneChangedFrom="0" laneChangedTo="0"/>
        <edge id="-1229272302#2" sampledSeconds="91.74" traveltime="13.84" overlapTraveltime="15.34" density="0.70" laneDensity="0.70" occupancy="0.33" waitingTime="0.00" timeLoss="21.63" speed="15.98" speedRelative="0.72" departed="1" arrived="0" entered="5" left="6" laneChangedFrom="0" laneChangedTo="0"/>
        <edge id="-1241770981" sampledSeconds="5.37" traveltime="2.37" overlapTraveltime="3.01" density="0.53" laneDensity="0.26" occupancy="0.11" waitingTime="0.00" timeLoss="2.83" speed="7.90" speedRelative="0.36" departed="1" arrived="0" entered="1" left="2" laneChangedFrom="0" laneChangedTo="0"/>
        <edge id="-124717943#1" sampledSeconds="100.60" traveltime="3.62" overlapTraveltime="3.87" density="2.46" laneDensity="2.46" occupancy="1.15" waitingTime="0.00" timeLoss="4.70" speed="20.74" speedRelative="0.93" departed="0" arrived="0" entered="26" left="26" laneChangedFrom="0" laneChangedTo="0"/>
        <edge id="-127393859#10" sampledSeconds="89.47" traveltime="44.52" overlapTraveltime="44.74" density="0.17" laneDensity="0.09" occupancy="0.04" waitingTime="0.00" timeLoss="8.76" speed="21.28" speedRelative="0.96" departed="0" arrived="0" entered="2" left="2" laneChangedFrom="0" laneChangedTo="0"/>
        <edge id="-127720113" sampledSeconds="43.90" traveltime="21.55" overlapTraveltime="22.28" density="0.23" laneDensity="0.23" occupancy="0.11" waitingTime="0.00" timeLoss="11.00" speed="15.73" speedRelative="0.71" departed="2" arrived="0" entered="0" left="2" laneChangedFrom="0" laneChangedTo="0"/>
        <edge id="-129211897" sampledSeconds="0.00" departed="0" arrived="0" entered="0" left="0" laneChangedFrom="0" laneChangedTo="0"/>
        <edge id="-1298616762" sampledSeconds="203.48" traveltime="39.02" overlapTraveltime="40.87" density="0.39" laneDensity="0.39" occupancy="0.19" waitingTime="1.00" timeLoss="25.81" speed="23.33" speedRelative="0.84" departed="4" arrived="0" entered="1" left="5" laneChangedFrom="0" laneChangedTo="0"/>
        <edge id="-1303420787#1" sampledSeconds="170.36" traveltime="59.07" overlapTraveltime="59.74" density="0.77" laneDensity="0.39" occupancy="0.19" waitingTime="0.00" timeLoss="19.23" speed="6.85" speedRelative="0.82" departed="3" arrived="0" entered="2" left="2" laneChangedFrom="3" laneChangedTo="3"/>
        <edge id="-132203511" sampledSeconds="47.14" traveltime="5.01" overlapTraveltime="5.24" density="0.81" laneDensity="0.81" occupancy="0.39" waitingTime="0.00" timeLoss="2.42" speed="21.38" speedRelative="0.96" departed="0" arrived="0" entered="9" left="9" laneChangedFrom="0" laneChangedTo="0"/>
        <edge id="-1329337773" sampledSeconds="0.00" departed="0" arrived="0" entered="0" left="0" laneChangedFrom="0" laneChangedTo="0"/>
        <edge id="-1342183270" sampledSeconds="2.69" traveltime="0.05" overlapTraveltime="1.37" density="24.70" laneDensity="12.35" occupancy="0.24" waitingTime="0.00" timeLoss="0.63" speed="3.80" speedRelative="0.14" departed="1" arrived="0" entered="1" left="2" laneChangedFrom="0" laneChangedTo="0"/>
        <edge id="-1342183271#0" sampledSeconds="9.00" traveltime="9.47" overlapTraveltime="9.92" density="0.16" laneDensity="0.08" occupancy="0.04" waitingTime="0.00" timeLoss="5.18" speed="10.70" speedRelative="0.39" departed="1" arrived="0" entered="0" left="1" laneChangedFrom="1" laneChangedTo="1"/>
        <edge id="-1342183271#1" sampledSeconds="0.00" departed="0" arrived="0" entered="0" left="0" laneChangedFrom="0" laneChangedTo="0"/>
        <edge id="-1353127832#0" sampledSeconds="13.89" traveltime="13.09" overlapTraveltime="13.89" density="0.10" laneDensity="0.10" occupancy="0.05" waitingTime="0.00" timeLoss="2.10" speed="18.32" speedRelative="0.82" departed="0" arrived="0" entered="1" left="1" laneChangedFrom="0" laneChangedTo="0"/>
        <edge id="-1353127832#1" sampledSeconds="19.04" traveltime="9.46" overlapTraveltime="10.15" density="0.45" laneDensity="0.45" occupancy="0.22" waitingTime="0.00" timeLoss="11.63" speed="8.15" speedRelative="0.37" departed="2" arrived="0" entered="0" left="2" laneChangedFrom="0" laneChangedTo="0"/>
        <edge id="-135516567" sampledSeconds="592.57" traveltime="11.59" overlapTraveltime="12.37" density="9.31" laneDensity="3.10" occupancy="1.48" waitingTime="27.00" timeLoss="185.68" speed="9.87" speedRelative="0.71" departed="2" arrived="0" entered="46" left="48" laneChangedFrom="9" laneChangedTo="9"/>
        <edge id="-135737407" sampledSeconds="9.48" traveltime="9.28" overlapTraveltime="9.48" density="0.09" laneDensity="0.09" occupancy="0.04" waitingTime="0.00" timeLoss="3.03" speed="20.90" speedRelative="0.75" departed="0" arrived="0" entered="1" left="1" laneChangedFrom="0" laneChangedTo="0"/>
        <edge id="-1368388731#1" sampledSeconds="246.70" traveltime="39.97" overlapTraveltime="41.12" density="1.13" laneDensity="0.38" occupancy="0.18" waitingTime="20.00" timeLoss="58.04" speed="9.85" speedRelative="0.71" departed="0" arrived="0" entered="6" left="6" laneChangedFrom="2" laneChangedTo="2"/>
        <edge id="-1368388731#2" sampledSeconds="208.41" traveltime="40.23" overlapTraveltime="41.68" density="25.76" laneDensity="8.59" occupancy="4.20" waitingTime="178.00" timeLoss="200.71" speed="0.48" speedRelative="0.03" departed="0" arrived="0" entered="5" left="5" laneChangedFrom="2" laneChangedTo="2"/>
        <edge id="-1370956307#2" sampledSeconds="0.00" departed="0" arrived="0" entered="0" left="0" laneChangedFrom="0" laneChangedTo="0"/>
        <edge id="-1370956307#3" sampledSeconds="157.35" traveltime="9.40" overlapTraveltime="12.06" density="6.64" laneDensity="6.64" occupancy="2.80" waitingTime="64.00" timeLoss="126.44" speed="4.03" speedRelative="0.15" departed="0" arrived="0" entered="14" left="13" laneChangedFrom="0" laneChangedTo="0"/>
        <edge id="-1371910960" sampledSeconds="0.00" departed="0" arrived="0" entered="0" left="0" laneChangedFrom="0" laneChangedTo="0"/>
        <edge id="-1372160681#2" sampledSeconds="6.79" traveltime="6.24" overlapTraveltime="6.79" density="0.21" laneDensity="0.21" occupancy="0.10" waitingTime="0.00" timeLoss="2.88" speed="9.48" speedRelative="0.68" departed="0" arrived="0" entered="1" left="1" laneChangedFrom="0" laneChangedTo="0"/>
        <edge id="-1372216573#3" sampledSeconds="483.90" traveltime="62.35" overlapTraveltime="63.53" density="0.74" laneDensity="0.37" occupancy="0.18" waitingTime="15.00" timeLoss="71.55" speed="19.12" speedRelative="0.86" departed="1" arrived="0" entered="7" left="7" laneChangedFrom="14" laneChangedTo="14"/>
        <edge id="-1373888461" sampledSeconds="129.01" traveltime="5.41" overlapTraveltime="5.86" density="2.37" laneDensity="1.18" occupancy="0.55" waitingTime="0.00" timeLoss="21.57" speed="17.94" speedRelative="0.81" departed="0" arrived="0" entered="22" left="22" laneChangedFrom="0" laneChangedTo="0"/>
        <edge id="-1374303295" sampledSeconds="7.60" traveltime="0.59" overlapTraveltime="0.84" density="1.21" laneDensity="1.21" occupancy="0.42" waitingTime="0.00" timeLoss="0.98" speed="19.63" speedRelative="0.88" departed="0" arrived="0" entered="9" left="9" laneChangedFrom="0" laneChangedTo="0"/>
        <edge id="-1374303298" sampledSeconds="6.53" traveltime="0.11" overlapTraveltime="0.61" density="7.50" laneDensity="7.50" occupancy="0.96" waitingTime="0.00" timeLoss="1.99" speed="10.88" speedRelative="0.49" departed="1" arrived="0" entered="10" left="11" laneChangedFrom="0" laneChangedTo="0"/>
        <edge id="-1374303304" sampledSeconds="176.73" traveltime="6.04" overlapTraveltime="6.31" density="3.18" laneDensity="1.59" occupancy="0.75" waitingTime="0.00" timeLoss="39.30" speed="16.96" speedRelative="0.76" departed="0" arrived="0" entered="28" left="28" laneChangedFrom="0" laneChangedTo="0"/>
        <edge id="-1376669697" sampledSeconds="1793.79" traveltime="71.42" overlapTraveltime="72.63" density="16.24" laneDensity="8.12" occupancy="4.03" waitingTime="1160.00" timeLoss="1555.74" speed="2.86" speedRelative="0.13" departed="2" arrived="0" entered="23" left="22" laneChangedFrom="0" laneChangedTo="0"/>
        <edge id="-1382373141#1" sampledSeconds="0.00" departed="0" arrived="0" entered="0" left="0" laneChangedFrom="0" laneChangedTo="0"/>
        <edge id="-139289310" sampledSeconds="0.00" departed="0" arrived="0" entered="0" left="0" laneChangedFrom="0" laneChangedTo="0"/>
        <edge id="-142236550" sampledSeconds="30.51" traveltime="30.36" overlapTraveltime="30.77" density="0.09" laneDensity="0.09" occupancy="0.05" waitingTime="0.00" timeLoss="1.75" speed="19.70" speedRelative="0.89" departed="1" arrived="0" entered="0" left="1" laneChangedFrom="0" laneChangedTo="0"/>
        <edge id="-142502375#3" sampledSeconds="188.82" traveltime="26.29" overlapTraveltime="27.43" density="1.69" laneDensity="1.69" occupancy="0.82" waitingTime="69.00" timeLoss="136.91" speed="7.68" speedRelative="0.28" departed="1" arrived="0" entered="6" left="5" laneChangedFrom="0" laneChangedTo="0"/>
        <edge id="-142502376" sampledSeconds="5.29" traveltime="0.68" overlapTraveltime="1.32" density="1.83" laneDensity="1.83" occupancy="0.45" waitingTime="0.00" timeLoss="3.83" speed="7.79" speedRelative="0.28" departed="0" arrived="0" entered="4" left="4" laneChangedFrom="0" laneChangedTo="0"/>
        <edge id="-146400216" sampledSeconds="13.85" traveltime="4.32" overlapTraveltime="4.84" density="0.82" laneDensity="0.82" occupancy="0.37" waitingTime="0.00" timeLoss="3.42" speed="7.47" speedRelative="0.90" departed="1" arrived="0" entered="2" left="3" laneChangedFrom="0" laneChangedTo="0"/>
        <edge id="-157502405" sampledSeconds="8.84" traveltime="8.55" overlapTraveltime="8.84" density="0.19" laneDensity="0.19" occupancy="0.08" waitingTime="0.00" timeLoss="4.90" speed="10.44" speedRelative="0.47" departed="0" arrived="0" entered="1" left="1" laneChangedFrom="0" laneChangedTo="0"/>
        <edge id="-157502407#1" sampledSeconds="13.96" traveltime="13.76" overlapTraveltime="13.96" density="0.08" laneDensity="0.08" occupancy="0.04" waitingTime="0.00" timeLoss="1.45" speed="22.10" speedRelative="0.99" departed="0" arrived="0" entered="1" left="1" laneChangedFrom="0" laneChangedTo="0"/>
        <edge id="-157502421" sampledSeconds="8.28" traveltime="2.10" overlapTraveltime="2.76" density="0.82" laneDensity="0.82" occupancy="0.32" waitingTime="0.00" timeLoss="4.29" speed="8.52" speedRelative="0.38" departed="0" arrived="0" entered="3" left="3" laneChangedFrom="0" laneChangedTo="0"/>
        <edge id="-157534940#1" sampledSeconds="19.19" traveltime="9.01" overlapTraveltime="9.60" density="0.25" laneDensity="0.25" occupancy="0.12" waitingTime="0.00" timeLoss="4.74" speed="15.31" speedRelative="0.69" departed="0" arrived="0" entered="2" left="2" laneChangedFrom="0" laneChangedTo="0"/>
        <edge id="-160568897" sampledSeconds="73.49" traveltime="11.81" overlapTraveltime="12.25" density="0.63" laneDensity="0.63" occupancy="0.30" waitingTime="0.00" timeLoss="12.25" speed="18.04" speedRelative="0.81" departed="0" arrived="0" entered="6" left="6" laneChangedFrom="0" laneChangedTo="0"/>
        <edge id="-170811632" sampledSeconds="98.66" traveltime="7.29" overlapTraveltime="7.59" density="1.01" laneDensity="1.01" occupancy="0.49" waitingTime="0.00" timeLoss="10.59" speed="24.26" speedRelative="0.87" departed="0" arrived="0" entered="13" left="13" laneChangedFrom="0" laneChangedTo="0"/>
        <edge id="-172137212" sampledSeconds="438.44" traveltime="42.50" overlapTraveltime="43.29" density="0.98" laneDensity="0.98" occupancy="0.48" waitingTime="0.00" timeLoss="46.66" speed="19.14" speedRelative="0.86" departed="0" arrived="0" entered="11" left="10" laneChangedFrom="0" laneChangedTo="0"/>
        <edge id="-172137227#0" sampledSeconds="35.80" traveltime="4.14" overlapTraveltime="4.54" density="1.61" laneDensity="1.61" occupancy="0.70" waitingTime="0.00" timeLoss="18.83" speed="10.13" speedRelative="0.46" departed="1" arrived="0" entered="7" left="8" laneChangedFrom="0" laneChangedTo="0"/>
        <edge id="-172137227#1" sampledSeconds="24.98" traveltime="8.21" overlapTraveltime="8.47" density="0.48" laneDensity="0.48" occupancy="0.23" waitingTime="0.00" timeLoss="11.24" speed="11.78" speedRelative="0.53" departed="1" arrived="0" entered="2" left="3" laneChangedFrom="0" laneChangedTo="0"/>
        <edge id="-173076714#2" sampledSeconds="0.00" departed="0" arrived="0" entered="0" left="0" laneChangedFrom="0" laneChangedTo="0"/>
        <edge id="-177343973" sampledSeconds="142.41" traveltime="12.49" overlapTraveltime="12.99" density="0.92" laneDensity="0.92" occupancy="0.45" waitingTime="0.00" timeLoss="24.38" speed="22.26" speedRelative="0.80" departed="2" arrived="0" entered="9" left="11" laneChangedFrom="0" laneChangedTo="0"/>
        <edge id="-182183037#1" sampledSeconds="479.58" traveltime="31.39" overlapTraveltime="31.89" density="2.20" laneDensity="1.10" occupancy="0.54" waitingTime="14.00" timeLoss="49.45" speed="12.70" speedRelative="0.91" departed="1" arrived="0" entered="15" left="13" laneChangedFrom="5" laneChangedTo="5"/>
        <edge id="-183454727#4" sampledSeconds="89.91" traveltime="9.93" overlapTraveltime="10.59" density="1.01" laneDensity="0.50" occupancy="0.24" waitingTime="0.00" timeLoss="34.06" speed="15.98" speedRelative="0.58" departed="1" arrived="0" entered="9" left="8" laneChangedFrom="0" laneChangedTo="0"/>
        <edge id="-183975086" sampledSeconds="53.06" traveltime="17.33" overlapTraveltime="17.78" density="0.32" laneDensity="0.32" occupancy="0.16" waitingTime="0.00" timeLoss="7.04" speed="17.41" speedRelative="0.78" departed="1" arrived="0" entered="2" left="3" laneChangedFrom="0" laneChangedTo="0"/>
        <edge id="-184908997#2" sampledSeconds="37.22" traveltime="17.49" overlapTraveltime="18.61" density="0.46" laneDensity="0.46" occupancy="0.22" waitingTime="12.00" timeLoss="20.42" speed="8.30" speedRelative="0.37" departed="0" arrived="0" entered="2" left="2" laneChangedFrom="0" laneChangedTo="0"/>
        <edge id="-186184931#9" sampledSeconds="2303.53" traveltime="51.59" overlapTraveltime="52.42" density="6.40" laneDensity="3.20" occupancy="1.58" waitingTime="0.00" timeLoss="204.56" speed="12.71" speedRelative="0.92" departed="0" arrived="0" entered="48" left="42" laneChangedFrom="8" laneChangedTo="8"/>
        <edge id="-186485143#1" sampledSeconds="245.33" traveltime="17.28" overlapTraveltime="17.52" density="1.41" laneDensity="1.41" occupancy="0.68" waitingTime="0.00" timeLoss="38.72" speed="18.59" speedRelative="0.84" departed="0" arrived="1" entered="14" left="13" laneChangedFrom="0" laneChangedTo="0"/>
        <edge id="-186526645" sampledSeconds="31.26" traveltime="1.87" overlapTraveltime="2.23" density="12.38" laneDensity="12.38" occupancy="4.01" waitingTime="20.00" timeLoss="24.41" speed="4.32" speedRelative="0.19" departed="0" arrived="0" entered="14" left="14" laneChangedFrom="0" laneChangedTo="0"/>
        <edge id="-186526646#3" sampledSeconds="430.62" traveltime="32.38" overlapTraveltime="33.12" density="1.24" laneDensity="1.24" occupancy="0.61" waitingTime="0.00" timeLoss="52.08" speed="19.48" speedRelative="0.88" departed="0" arrived="0" entered="13" left="13" laneChangedFrom="0" laneChangedTo="0"/>
        <edge id="-190063815#2" sampledSeconds="358.52" traveltime="43.79" overlapTraveltime="44.91" density="1.89" laneDensity="1.89" occupancy="0.93" waitingTime="167.00" timeLoss="229.19" speed="7.89" speedRelative="0.35" departed="0" arrived="0" entered="8" left="7" laneChangedFrom="0" laneChangedTo="0"/>
        <edge id="-190111970#3" sampledSeconds="218.78" traveltime="7.34" overlapTraveltime="8.13" density="3.81" laneDensity="3.81" occupancy="1.77" waitingTime="0.00" timeLoss="74.07" speed="13.59" speedRelative="0.61" departed="2" arrived="0" entered="25" left="27" laneChangedFrom="0" laneChangedTo="0"/>
        <edge id="-195567980" sampledSeconds="90.19" traveltime="15.33" overlapTraveltime="15.71" density="0.82" laneDensity="0.41" occupancy="0.20" waitingTime="0.00" timeLoss="5.43" speed="13.13" speedRelative="0.95" departed="0" arrived="0" entered="6" left="5" laneChangedFrom="1" laneChangedTo="1"/>
        <edge id="-195571137" sampledSeconds="483.51" traveltime="11.21" overlapTraveltime="12.05" density="5.39" laneDensity="1.80" occupancy="0.85" waitingTime="1.00" timeLoss="241.05" speed="14.11" speedRelative="0.51" departed="1" arrived="0" entered="40" left="40" laneChangedFrom="15" laneChangedTo="15"/>
        <edge id="-195574850" sampledSeconds="0.00" departed="0" arrived="0" entered="0" left="0" laneChangedFrom="0" laneChangedTo="0"/>
        <edge id="-196782992" sampledSeconds="14.74" traveltime="13.96" overlapTraveltime="14.74" density="0.13" laneDensity="0.13" occupancy="0.06" waitingTime="0.00" timeLoss="4.61" speed="14.22" speedRelative="0.64" departed="0" arrived="0" entered="1" left="1" laneChangedFrom="0" laneChangedTo="0"/>
        <edge id="-19747258" sampledSeconds="10.00" traveltime="4.61" overlapTraveltime="5.00" density="0.30" laneDensity="0.15" occupancy="0.07" waitingTime="0.00" timeLoss="0.60" speed="13.07" speedRelative="0.94" departed="0" arrived="0" entered="2" left="2" laneChangedFrom="0" laneChangedTo="0"/>
        <edge id="-19747779" sampledSeconds="23.95" traveltime="0.92" overlapTraveltime="2.05" density="4.05" laneDensity="2.02" occupancy="0.72" waitingTime="2.00" timeLoss="12.99" speed="7.74" speedRelative="0.28" departed="1" arrived="0" entered="11" left="12" laneChangedFrom="0" laneChangedTo="0"/>
        <edge id="-19747856" sampledSeconds="117.15" traveltime="10.36" overlapTraveltime="10.65" density="0.95" laneDensity="0.48" occupancy="0.23" waitingTime="0.00" timeLoss="22.91" speed="21.71" speedRelative="0.78" departed="0" arrived="0" entered="11" left="11" laneChangedFrom="3" laneChangedTo="3"/>
        <edge id="-19747865" sampledSeconds="68.92" traveltime="5.41" overlapTraveltime="5.78" density="1.90" laneDensity="0.63" occupancy="0.30" waitingTime="0.00" timeLoss="10.49" speed="12.39" speedRelative="0.89" departed="1" arrived="1" entered="11" left="11" laneChangedFrom="1" laneChangedTo="1"/>
        <edge id="-19753727#3" sampledSeconds="0.00" departed="0" arrived="0" entered="0" left="0" laneChangedFrom="0" laneChangedTo="0"/>
        <edge id="-19783394" sampledSeconds="44.74" traveltime="44.45" overlapTraveltime="44.74" density="0.11" laneDensity="0.04" occupancy="0.02" waitingTime="0.00" timeLoss="1.78" speed="16.69" speedRelative="1.00" departed="0" arrived="0" entered="1" left="1" laneChangedFrom="0" laneChangedTo="0"/>
        <edge id="-207283319" sampledSeconds="52.48" traveltime="5.77" overlapTraveltime="6.44" density="1.48" laneDensity="0.74" occupancy="0.34" waitingTime="0.00" timeLoss="8.97" speed="10.92" speedRelative="0.79" departed="1" arrived="0" entered="8" left="8" laneChangedFrom="0" laneChangedTo="0"/>
        <edge id="-208421637#2" sampledSeconds="193.58" traveltime="17.43" overlapTraveltime="18.93" density="16.29" laneDensity="8.14" occupancy="3.93" waitingTime="149.00" timeLoss="175.47" speed="1.42" speedRelative="0.10" departed="1" arrived="1" entered="11" left="8" laneChangedFrom="4" laneChangedTo="4"/>
        <edge id="-208421649#4" sampledSeconds="298.72" traveltime="24.91" overlapTraveltime="25.29" density="1.68" laneDensity="0.56" occupancy="0.28" waitingTime="0.00" timeLoss="16.99" speed="13.13" speedRelative="0.95" departed="0" arrived="0" entered="14" left="10" laneChangedFrom="11" laneChangedTo="11"/>
        <edge id="-212055133" sampledSeconds="354.12" traveltime="23.56" overlapTraveltime="24.04" density="2.71" laneDensity="2.71" occupancy="1.32" waitingTime="0.00" timeLoss="29.06" speed="10.21" speedRelative="0.92" departed="2" arrived="0" entered="13" left="14" laneChangedFrom="0" laneChangedTo="0"/>
        <edge id="-222105714" sampledSeconds="234.41" traveltime="4.62" overlapTraveltime="5.36" density="11.19" laneDensity="5.60" occupancy="2.50" waitingTime="6.00" timeLoss="166.79" speed="8.12" speedRelative="0.29" departed="2" arrived="1" entered="42" left="43" laneChangedFrom="3" laneChangedTo="3"/>
        <edge id="-22742149#1" sampledSeconds="71.75" traveltime="11.77" overlapTraveltime="11.96" density="0.63" laneDensity="0.63" occupancy="0.30" waitingTime="0.00" timeLoss="24.91" speed="18.06" speedRelative="0.65" departed="0" arrived="0" entered="6" left="6" laneChangedFrom="0" laneChangedTo="0"/>
        <edge id="-23057154" sampledSeconds="13.63" traveltime="6.75" overlapTraveltime="6.98" density="0.25" laneDensity="0.13" occupancy="0.06" waitingTime="0.00" timeLoss="5.47" speed="15.06" speedRelative="0.68" departed="1" arrived="0" entered="1" left="2" laneChangedFrom="1" laneChangedTo="1"/>
        <edge id="-23120605" sampledSeconds="446.22" traveltime="16.68" overlapTraveltime="17.16" density="4.84" laneDensity="2.42" occupancy="1.18" waitingTime="0.00" timeLoss="41.23" speed="10.17" speedRelative="0.92" departed="0" arrived="0" entered="26" left="26" laneChangedFrom="0" laneChangedTo="0"/>
        <edge id="-23126106" sampledSeconds="28.40" traveltime="13.98" overlapTraveltime="14.20" density="0.17" laneDensity="0.17" occupancy="0.08" waitingTime="0.00" timeLoss="0.89" speed="22.54" speedRelative="1.01" departed="0" arrived="0" entered="2" left="2" laneChangedFrom="0" laneChangedTo="0"/>
        <edge id="-231562529" sampledSeconds="10.42" traveltime="10.30" overlapTraveltime="10.61" density="0.07" laneDensity="0.07" occupancy="0.03" waitingTime="0.00" timeLoss="0.80" speed="27.30" speedRelative="0.98" departed="1" arrived="0" entered="0" left="1" laneChangedFrom="0" laneChangedTo="0"/>
        <edge id="-231562532" sampledSeconds="0.00" departed="0" arrived="0" entered="0" left="0" laneChangedFrom="0" laneChangedTo="0"/>
        <edge id="-236178542#0" sampledSeconds="0.00" departed="0" arrived="0" entered="0" left="0" laneChangedFrom="0" laneChangedTo="0"/>
        <edge id="-236178542#1" sampledSeconds="39.48" traveltime="17.59" overlapTraveltime="13.33" density="133.33" laneDensity="133.33" occupancy="7.23" waitingTime="35.00" timeLoss="36.84" speed="0.39" speedRelative="0.01" departed="1" arrived="0" entered="2" left="3" laneChangedFrom="0" laneChangedTo="0"/>