<?xml version="1.0" encoding="UTF-8"?>

<!-- generated on 2025-07-14 12:07:19 by Eclipse SUMO GUI Version 1.23.1
<sumoConfiguration xmlns:xsi="http://www.w3.org/2001/XMLSchema-instance" xsi:noNamespaceSchemaLocation="http://sumo.dlr.de/xsd/sumoConfiguration.xsd">

    <input>
        <net-file value="/home/raquel/Sumo/2025-07-14-12-06-58/osm.net.xml.gz"/>
        <route-files value="/home/raquel/Sumo/2025-07-14-12-06-58/osm.passenger.trips.xml"/>
        <additional-files value="/home/raquel/Sumo/2025-07-14-12-06-58/output.add.xml"/>
    </input>

    <output>
        <tripinfo-output value="/home/raquel/Sumo/2025-07-14-12-06-58/tripinfos.xml"/>
        <statistic-output value="/home/raquel/Sumo/2025-07-14-12-06-58/stats.xml"/>
    </output>

    <processing>
        <ignore-route-errors value="true"/>
        <tls.actuated.jam-threshold value="30"/>
    </processing>

    <routing>
        <device.rerouting.adaptation-steps value="18"/>
        <device.rerouting.adaptation-interval value="10"/>
    </routing>

    <report>
        <verbose value="true"/>
        <duration-log.statistics value="true"/>
        <no-step-log value="true"/>
    </report>

    <gui_only>
        <gui-settings-file value="/home/raquel/Sumo/2025-07-14-12-06-58/osm.view.xml"/>
    </gui_only>

</sumoConfiguration>
-->

<tripinfos xmlns:xsi="http://www.w3.org/2001/XMLSchema-instance" xsi:noNamespaceSchemaLocation="http://sumo.dlr.de/xsd/tripinfo_file.xsd">
    <tripinfo id="veh107" depart="28.00" departLane="-30245182#2_1" departPos="5.10" departSpeed="0.00" departDelay="0.48" arrival="98.00" arrivalLane="339757000_1" arrivalPos="111.29" arrivalSpeed="14.01" duration="70.00" routeLength="887.21" waitingTime="0.00" waitingCount="0" stopTime="0.00" timeLoss="22.71" rerouteNo="1" devices="tripinfo_veh107 routing_veh107" vType="veh_passenger" speedFactor="1.03" vaporized=""/>
    <tripinfo id="veh28" depart="8.00" departLane="1138018312#0_0" departPos="5.10" departSpeed="0.00" departDelay="0.80" arrival="104.00" arrivalLane="23126497_0" arrivalPos="555.50" arrivalSpeed="15.55" duration="96.00" routeLength="1381.20" waitingTime="0.00" waitingCount="0" stopTime="0.00" timeLoss="8.66" rerouteNo="1" devices="tripinfo_veh28 routing_veh28" vType="veh_passenger" speedFactor="1.13" vaporized=""/>
    <tripinfo id="veh145" depart="38.00" departLane="577881816#0_0" departPos="5.10" departSpeed="0.00" departDelay="0.71" arrival="110.00" arrivalLane="642984982#0_0" arrivalPos="179.13" arrivalSpeed="15.27" duration="72.00" routeLength="499.67" waitingTime="23.00" waitingCount="2" stopTime="0.00" timeLoss="49.60" rerouteNo="1" devices="tripinfo_veh145 routing_veh145" vType="veh_passenger" speedFactor="1.14" vaporized=""/>
    <tripinfo id="veh278" depart="72.00" departLane="639334630#1_0" departPos="5.10" departSpeed="0.00" departDelay="0.50" arrival="110.00" arrivalLane="118437730_0" arrivalPos="273.07" arrivalSpeed="21.02" duration="38.00" routeLength="507.64" waitingTime="0.00" waitingCount="0" stopTime="0.00" timeLoss="12.96" rerouteNo="1" devices="tripinfo_veh278 routing_veh278" vType="veh_passenger" speedFactor="0.99" vaporized=""/>
    <tripinfo id="veh213" depart="55.00" departLane="26652568#1_1" departPos="5.10" departSpeed="0.00" departDelay="0.22" arrival="131.00" arrivalLane="1413555722#0_1" arrivalPos="0.20" arrivalSpeed="15.02" duration="76.00" routeLength="1069.60" waitingTime="0.00" waitingCount="0" stopTime="0.00" timeLoss="11.25" rerouteNo="1" devices="tripinfo_veh213 routing_veh213" vType="veh_passenger" speedFactor="1.10" vaporized=""/>
    <tripinfo id="veh185" depart="48.00" departLane="-1044163467#1_1" departPos="5.10" departSpeed="0.00" departDelay="0.42" arrival="133.00" arrivalLane="183213749#0_2" arrivalPos="119.86" arrivalSpeed="24.46" duration="85.00" routeLength="1032.17" waitingTime="0.00" waitingCount="0" stopTime="0.00" timeLoss="33.96" rerouteNo="1" devices="tripinfo_veh185 routing_veh185" vType="veh_passenger" speedFactor="0.92" vaporized=""/>
    <tripinfo id="veh173" depart="45.00" departLane="-1121908324#1_0" departPos="5.10" departSpeed="0.00" departDelay="0.50" arrival="147.00" arrivalLane="760949348#0_0" arrivalPos="131.36" arrivalSpeed="21.99" duration="102.00" routeLength="734.74" waitingTime="45.00" waitingCount="2" stopTime="0.00" timeLoss="77.17" rerouteNo="1" devices="tripinfo_veh173 routing_veh173" vType="veh_passenger" speedFactor="1.14" vaporized=""/>
    <tripinfo id="veh41" depart="11.00" departLane="-447598476_1" departPos="5.10" departSpeed="0.00" departDelay="0.45" arrival="148.00" arrivalLane="-28354664#0_0" arrivalPos="156.21" arrivalSpeed="25.32" duration="137.00" routeLength="2165.72" waitingTime="13.00" waitingCount="1" stopTime="0.00" timeLoss="46.25" rerouteNo="1" devices="tripinfo_veh41 routing_veh41" vType="veh_passenger" speedFactor="0.96" vaporized=""/>
    <tripinfo id="veh119" depart="31.00" departLane="99368489_0" departPos="5.10" departSpeed="0.00" departDelay="0.39" arrival="150.00" arrivalLane="99028633#0_0" arrivalPos="168.19" arrivalSpeed="14.25" duration="119.00" routeLength="2072.26" waitingTime="4.00" waitingCount="1" stopTime="0.00" timeLoss="26.35" rerouteNo="1" devices="tripinfo_veh119 routing_veh119" vType="veh_passenger" speedFactor="1.07" vaporized=""/>
    <tripinfo id="veh242" depart="63.00" departLane="127353237#0_0" departPos="5.10" departSpeed="0.00" departDelay="0.76" arrival="154.00" arrivalLane="19747258_1" arrivalPos="60.32" arrivalSpeed="13.44" duration="91.00" routeLength="1208.16" waitingTime="0.00" waitingCount="0" stopTime="0.00" timeLoss="25.52" rerouteNo="1" devices="tripinfo_veh242 routing_veh242" vType="veh_passenger" speedFactor="0.97" vaporized=""/>
    <tripinfo id="veh391" depart="101.00" departLane="334162222#0_0" departPos="5.10" departSpeed="9.24" departDelay="0.43" arrival="160.00" arrivalLane="66098506#0_0" arrivalPos="262.95" arrivalSpeed="23.49" duration="59.00" routeLength="979.13" waitingTime="0.00" waitingCount="0" stopTime="0.00" timeLoss="11.54" rerouteNo="1" devices="tripinfo_veh391 routing_veh391" vType="veh_passenger" speedFactor="1.11" vaporized=""/>
    <tripinfo id="veh19" depart="5.00" departLane="444273625#0_0" departPos="5.10" departSpeed="0.00" departDelay="0.11" arrival="176.00" arrivalLane="-28327851#2_1" arrivalPos="119.25" arrivalSpeed="8.48" duration="171.00" routeLength="2525.26" waitingTime="16.00" waitingCount="2" stopTime="0.00" timeLoss="85.35" rerouteNo="1" devices="tripinfo_veh19 routing_veh19" vType="veh_passenger" speedFactor="1.16" vaporized=""/>
    <tripinfo id="veh122" depart="32.00" departLane="22747513_0" departPos="5.10" departSpeed="0.00" departDelay="0.62" arrival="177.00" arrivalLane="1137958424_0" arrivalPos="105.33" arrivalSpeed="7.84" duration="145.00" routeLength="1226.82" waitingTime="0.00" waitingCount="0" stopTime="0.00" timeLoss="27.13" rerouteNo="1" devices="tripinfo_veh122 routing_veh122" vType="veh_passenger" speedFactor="1.03" vaporized=""/>
    <tripinfo id="veh53" depart="14.00" departLane="73037085_0" departPos="5.10" departSpeed="0.00" departDelay="0.37" arrival="180.00" arrivalLane="66496251#0_0" arrivalPos="217.29" arrivalSpeed="29.81" duration="166.00" routeLength="2282.33" waitingTime="0.00" waitingCount="0" stopTime="0.00" timeLoss="46.03" rerouteNo="1" devices="tripinfo_veh53 routing_veh53" vType="veh_passenger" speedFactor="1.10" vaporized=""/>
    <tripinfo id="veh74" depart="20.00" departLane="19746250_3" departPos="5.10" departSpeed="0.00" departDelay="0.97" arrival="181.00" arrivalLane="34760703#0_0" arrivalPos="621.01" arrivalSpeed="21.01" duration="161.00" routeLength="1720.53" waitingTime="37.00" waitingCount="1" stopTime="0.00" timeLoss="56.73" rerouteNo="1" devices="tripinfo_veh74 routing_veh74" vType="veh_passenger" speedFactor="0.96" vaporized=""/>
    <tripinfo id="veh188" depart="49.00" departLane="239075751#0_0" departPos="5.10" departSpeed="0.00" departDelay="0.65" arrival="183.00" arrivalLane="130524181_0" arrivalPos="48.69" arrivalSpeed="12.79" duration="134.00" routeLength="1327.68" waitingTime="24.00" waitingCount="2" stopTime="0.00" timeLoss="59.00" rerouteNo="1" devices="tripinfo_veh188 routing_veh188" vType="veh_passenger" speedFactor="0.97" vaporized=""/>
    <tripinfo id="veh103" depart="27.00" departLane="30728521_0" departPos="5.10" departSpeed="0.00" departDelay="0.51" arrival="188.00" arrivalLane="48500480#1_0" arrivalPos="412.86" arrivalSpeed="20.30" duration="161.00" routeLength="2461.16" waitingTime="3.00" waitingCount="1" stopTime="0.00" timeLoss="34.06" rerouteNo="1" devices="tripinfo_veh103 routing_veh103" vType="veh_passenger" speedFactor="0.95" vaporized=""/>
    <tripinfo id="veh493" depart="127.00" departLane="54617128#1_1" departPos="5.10" departSpeed="0.00" departDelay="0.20" arrival="189.00" arrivalLane="293005705#0_0" arrivalPos="458.99" arrivalSpeed="15.58" duration="62.00" routeLength="859.38" waitingTime="0.00" waitingCount="0" stopTime="0.00" timeLoss="11.21" rerouteNo="1" devices="tripinfo_veh493 routing_veh493" vType="veh_passenger" speedFactor="1.13" vaporized=""/>
    <tripinfo id="veh88" depart="23.00" departLane="639628960_1" departPos="2.38" departSpeed="0.00" departDelay="0.37" arrival="191.00" arrivalLane="1391650916_0" arrivalPos="22.06" arrivalSpeed="13.81" duration="168.00" routeLength="3242.73" waitingTime="0.00" waitingCount="0" stopTime="0.00" timeLoss="21.60" rerouteNo="1" devices="tripinfo_veh88 routing_veh88" vType="veh_passenger" speedFactor="1.01" vaporized=""/>
    <tripinfo id="veh190" depart="51.00" departLane="-395554555_0" departPos="5.10" departSpeed="0.00" departDelay="2.13" arrival="202.00" arrivalLane="28604213#0_0" arrivalPos="83.40" arrivalSpeed="19.53" duration="151.00" routeLength="2121.80" waitingTime="0.00" waitingCount="0" stopTime="0.00" timeLoss="40.90" rerouteNo="1" devices="tripinfo_veh190 routing_veh190" vType="veh_passenger" speedFactor="0.90" vaporized=""/>
    <tripinfo id="veh179" depart="49.00" departLane="187102707#6_0" departPos="5.10" departSpeed="0.00" departDelay="2.96" arrival="207.00" arrivalLane="238327268#0_1" arrivalPos="43.20" arrivalSpeed="19.46" duration="158.00" routeLength="2397.19" waitingTime="5.00" waitingCount="1" stopTime="0.00" timeLoss="45.69" rerouteNo="1" devices="tripinfo_veh179 routing_veh179" vType="veh_passenger" speedFactor="1.06" vaporized=""/>
    <tripinfo id="veh334" depart="86.00" departLane="427558757#0_0" departPos="5.10" departSpeed="0.00" departDelay="0.09" arrival="209.00" arrivalLane="444016330#1_0" arrivalPos="26.40" arrivalSpeed="15.52" duration="123.00" routeLength="1782.98" waitingTime="0.00" waitingCount="0" stopTime="0.00" timeLoss="18.21" rerouteNo="1" devices="tripinfo_veh334 routing_veh334" vType="veh_passenger" speedFactor="1.18" vaporized=""/>
    <tripinfo id="veh479" depart="124.00" departLane="34756786#0_0" departPos="5.10" departSpeed="0.00" departDelay="0.80" arrival="216.00" arrivalLane="-186485143#1_0" arrivalPos="320.81" arrivalSpeed="20.23" duration="92.00" routeLength="1124.43" waitingTime="15.00" waitingCount="2" stopTime="0.00" timeLoss="35.78" rerouteNo="1" devices="tripinfo_veh479 routing_veh479" vType="veh_passenger" speedFactor="0.94" vaporized=""/>
    <tripinfo id="veh196" depart="55.00" departLane="639334628#2_0" departPos="5.10" departSpeed="0.00" departDelay="4.59" arrival="217.00" arrivalLane="-36356418#3_1" arrivalPos="59.49" arrivalSpeed="13.29" duration="162.00" routeLength="1611.89" waitingTime="33.00" waitingCount="1" stopTime="0.00" timeLoss="82.71" rerouteNo="1" devices="tripinfo_veh196 routing_veh196" vType="veh_passenger" speedFactor="1.03" vaporized=""/>
    <tripinfo id="veh0" depart="0.00" departLane="396962116#2_2" departPos="5.10" departSpeed="0.00" departDelay="0.00" arrival="222.00" arrivalLane="-19747865_1" arrivalPos="66.58" arrivalSpeed="14.70" duration="222.00" routeLength="2633.62" waitingTime="13.00" waitingCount="3" stopTime="0.00" timeLoss="67.01" rerouteNo="1" devices="tripinfo_veh0 routing_veh0" vType="veh_passenger" speedFactor="1.06" vaporized=""/>
    <tripinfo id="veh156" depart="41.00" departLane="57732282_0" departPos="5.10" departSpeed="0.00" departDelay="0.88" arrival="224.00" arrivalLane="-639346211#1_0" arrivalPos="50.03" arrivalSpeed="22.21" duration="183.00" routeLength="2480.65" waitingTime="36.00" waitingCount="3" stopTime="0.00" timeLoss="99.38" rerouteNo="1" devices="tripinfo_veh156 routing_veh156" vType="veh_passenger" speedFactor="1.18" vaporized=""/>
    <tripinfo id="veh633" depart="163.00" departLane="40912103_0" departPos="5.10" departSpeed="0.00" departDelay="0.19" arrival="224.00" arrivalLane="1375655932#0_0" arrivalPos="167.93" arrivalSpeed="12.90" duration="61.00" routeLength="907.25" waitingTime="0.00" waitingCount="0" stopTime="0.00" timeLoss="15.28" rerouteNo="1" devices="tripinfo_veh633 routing_veh633" vType="veh_passenger" speedFactor="1.01" vaporized=""/>
    <tripinfo id="veh259" depart="67.00" departLane="871584213#0_2" departPos="5.10" departSpeed="0.00" departDelay="0.38" arrival="225.00" arrivalLane="237277459_0" arrivalPos="167.88" arrivalSpeed="11.41" duration="158.00" routeLength="1895.76" waitingTime="15.00" waitingCount="2" stopTime="0.00" timeLoss="54.66" rerouteNo="1" devices="tripinfo_veh259 routing_veh259" vType="veh_passenger" speedFactor="0.84" vaporized=""/>
    <tripinfo id="veh265" depart="69.00" departLane="28355687_0" departPos="5.10" departSpeed="21.43" departDelay="0.84" arrival="226.00" arrivalLane="211012794_0" arrivalPos="462.44" arrivalSpeed="32.02" duration="157.00" routeLength="3334.88" waitingTime="0.00" waitingCount="0" stopTime="0.00" timeLoss="30.11" rerouteNo="1" devices="tripinfo_veh265 routing_veh265" vType="veh_passenger" speedFactor="0.96" vaporized=""/>
    <tripinfo id="veh168" depart="44.00" departLane="-638996002_1" departPos="5.10" departSpeed="0.00" departDelay="0.79" arrival="231.00" arrivalLane="239210562_0" arrivalPos="1106.59" arrivalSpeed="21.47" duration="187.00" routeLength="2900.87" waitingTime="1.00" waitingCount="1" stopTime="0.00" timeLoss="36.14" rerouteNo="1" devices="tripinfo_veh168 routing_veh168" vType="veh_passenger" speedFactor="0.98" vaporized=""/>
    <tripinfo id="veh302" depart="78.00" departLane="644795919_0" departPos="0.20" departSpeed="0.00" departDelay="0.32" arrival="239.00" arrivalLane="28338835#0_1" arrivalPos="62.10" arrivalSpeed="15.43" duration="161.00" routeLength="2074.94" waitingTime="27.00" waitingCount="2" stopTime="0.00" timeLoss="66.00" rerouteNo="1" devices="tripinfo_veh302 routing_veh302" vType="veh_passenger" speedFactor="0.98" vaporized=""/>
    <tripinfo id="veh177" depart="46.00" departLane="405655304#0_4" departPos="5.10" departSpeed="0.00" departDelay="0.47" arrival="242.00" arrivalLane="19748287_1" arrivalPos="0.20" arrivalSpeed="11.63" duration="196.00" routeLength="2169.52" waitingTime="32.00" waitingCount="3" stopTime="0.00" timeLoss="84.44" rerouteNo="1" devices="tripinfo_veh177 routing_veh177" vType="veh_passenger" speedFactor="1.03" vaporized=""/>
    <tripinfo id="veh229" depart="59.00" departLane="639334647_1" departPos="5.10" departSpeed="0.00" departDelay="0.10" arrival="243.00" arrivalLane="81735377#1_0" arrivalPos="509.06" arrivalSpeed="12.79" duration="184.00" routeLength="2867.16" waitingTime="5.00" waitingCount="1" stopTime="0.00" timeLoss="35.87" rerouteNo="1" devices="tripinfo_veh229 routing_veh229" vType="veh_passenger" speedFactor="0.99" vaporized=""/>
    <tripinfo id="veh268" depart="69.00" departLane="387205575_0" departPos="3.16" departSpeed="0.00" departDelay="0.07" arrival="243.00" arrivalLane="631138220#0_0" arrivalPos="71.22" arrivalSpeed="18.11" duration="174.00" routeLength="2771.14" waitingTime="0.00" waitingCount="0" stopTime="0.00" timeLoss="29.81" rerouteNo="1" devices="tripinfo_veh268 routing_veh268" vType="veh_passenger" speedFactor="0.96" vaporized=""/>
    <tripinfo id="veh76" depart="20.00" departLane="-339756998_1" departPos="5.10" departSpeed="0.00" departDelay="0.45" arrival="246.00" arrivalLane="39659759_0" arrivalPos="114.29" arrivalSpeed="23.71" duration="226.00" routeLength="3126.03" waitingTime="0.00" waitingCount="0" stopTime="0.00" timeLoss="50.64" rerouteNo="1" devices="tripinfo_veh76 routing_veh76" vType="veh_passenger" speedFactor="1.03" vaporized=""/>
    <tripinfo id="veh72" depart="19.00" departLane="238833204#0_0" departPos="5.10" departSpeed="0.00" departDelay="0.48" arrival="247.00" arrivalLane="28604983_0" arrivalPos="0.20" arrivalSpeed="11.59" duration="228.00" routeLength="1969.38" waitingTime="62.00" waitingCount="4" stopTime="0.00" timeLoss="123.72" rerouteNo="1" devices="tripinfo_veh72 routing_veh72" vType="veh_passenger" speedFactor="0.94" vaporized=""/>
    <tripinfo id="veh70" depart="18.00" departLane="123316121_1" departPos="5.10" departSpeed="0.00" departDelay="0.00" arrival="249.00" arrivalLane="194889328-AddedOnRampEdge_0" arrivalPos="94.31" arrivalSpeed="21.83" duration="231.00" routeLength="3417.52" waitingTime="0.00" waitingCount="0" stopTime="0.00" timeLoss="40.75" rerouteNo="1" devices="tripinfo_veh70 routing_veh70" vType="veh_passenger" speedFactor="1.02" vaporized=""/>
    <tripinfo id="veh80" depart="21.00" departLane="765839124_0" departPos="5.10" departSpeed="0.00" departDelay="0.42" arrival="252.00" arrivalLane="329159953_0" arrivalPos="0.20" arrivalSpeed="14.20" duration="231.00" routeLength="3916.27" waitingTime="2.00" waitingCount="1" stopTime="0.00" timeLoss="49.28" rerouteNo="1" devices="tripinfo_veh80 routing_veh80" vType="veh_passenger" speedFactor="1.03" vaporized=""/>
    <tripinfo id="veh314" depart="81.00" departLane="285586000#0_1" departPos="5.10" departSpeed="0.00" departDelay="0.24" arrival="258.00" arrivalLane="261491870#0_1" arrivalPos="115.08" arrivalSpeed="26.42" duration="177.00" routeLength="2431.22" waitingTime="21.00" waitingCount="2" stopTime="0.00" timeLoss="81.31" rerouteNo="1" devices="tripinfo_veh314 routing_veh314" vType="veh_passenger" speedFactor="1.21" vaporized=""/>
    <tripinfo id="veh652" depart="168.00" departLane="-293005702_2" departPos="5.10" departSpeed="0.00" departDelay="0.30" arrival="258.00" arrivalLane="28382658#0_0" arrivalPos="0.81" arrivalSpeed="15.64" duration="90.00" routeLength="1045.18" waitingTime="0.00" waitingCount="0" stopTime="0.00" timeLoss="24.85" rerouteNo="1" devices="tripinfo_veh652 routing_veh652" vType="veh_passenger" speedFactor="0.97" vaporized=""/>
    <tripinfo id="veh163" depart="42.00" departLane="396962121#2_1" departPos="5.10" departSpeed="0.00" departDelay="0.08" arrival="264.00" arrivalLane="238190574#0_1" arrivalPos="50.14" arrivalSpeed="15.42" duration="222.00" routeLength="2841.04" waitingTime="17.00" waitingCount="1" stopTime="0.00" timeLoss="59.68" rerouteNo="1" devices="tripinfo_veh163 routing_veh163" vType="veh_passenger" speedFactor="1.13" vaporized=""/>
    <tripinfo id="veh371" depart="96.00" departLane="97083156#0_0" departPos="5.10" departSpeed="0.00" departDelay="0.58" arrival="265.00" arrivalLane="1386288740#0_0" arrivalPos="70.05" arrivalSpeed="12.70" duration="169.00" routeLength="2713.77" waitingTime="0.00" waitingCount="0" stopTime="0.00" timeLoss="28.63" rerouteNo="1" devices="tripinfo_veh371 routing_veh371" vType="veh_passenger" speedFactor="0.94" vaporized=""/>
    <tripinfo id="veh822" depart="212.00" departLane="380099002#3_0" departPos="5.10" departSpeed="0.00" departDelay="0.58" arrival="267.00" arrivalLane="380099002#4_0" arrivalPos="512.86" arrivalSpeed="13.56" duration="55.00" routeLength="666.52" waitingTime="0.00" waitingCount="0" stopTime="0.00" timeLoss="7.40" rerouteNo="0" devices="tripinfo_veh822 routing_veh822" vType="veh_passenger" speedFactor="1.03" vaporized=""/>
    <tripinfo id="veh98" depart="26.00" departLane="231901486#0_0" departPos="5.10" departSpeed="0.00" departDelay="0.79" arrival="270.00" arrivalLane="-30245182#2_0" arrivalPos="88.75" arrivalSpeed="20.52" duration="244.00" routeLength="2765.44" waitingTime="63.00" waitingCount="3" stopTime="0.00" timeLoss="116.33" rerouteNo="1" devices="tripinfo_veh98 routing_veh98" vType="veh_passenger" speedFactor="1.12" vaporized=""/>
    <tripinfo id="veh315" depart="82.00" departLane="239077121#0_0" departPos="5.10" departSpeed="0.00" departDelay="0.98" arrival="278.00" arrivalLane="642983721#0_0" arrivalPos="30.25" arrivalSpeed="19.49" duration="196.00" routeLength="2698.92" waitingTime="20.00" waitingCount="1" stopTime="0.00" timeLoss="59.19" rerouteNo="1" devices="tripinfo_veh315 routing_veh315" vType="veh_passenger" speedFactor="1.15" vaporized=""/>
    <tripinfo id="veh9" depart="3.00" departLane="58993469#0_0" departPos="5.10" departSpeed="0.00" departDelay="0.69" arrival="286.00" arrivalLane="-117107052_0" arrivalPos="18.39" arrivalSpeed="18.25" duration="283.00" routeLength="3596.85" waitingTime="54.00" waitingCount="3" stopTime="0.00" timeLoss="109.19" rerouteNo="1" devices="tripinfo_veh9 routing_veh9" vType="veh_passenger" speedFactor="0.86" vaporized=""/>
    <tripinfo id="veh338" depart="87.00" departLane="194904830#0_0" departPos="5.10" departSpeed="0.00" departDelay="0.06" arrival="287.00" arrivalLane="1391650918_1" arrivalPos="0.56" arrivalSpeed="12.33" duration="200.00" routeLength="3280.10" waitingTime="0.00" waitingCount="0" stopTime="0.00" timeLoss="26.42" rerouteNo="1" devices="tripinfo_veh338 routing_veh338" vType="veh_passenger" speedFactor="0.96" vaporized=""/>
    <tripinfo id="veh460" depart="119.00" departLane="183859987_0" departPos="5.10" departSpeed="24.99" departDelay="0.69" arrival="287.00" arrivalLane="238327268#0_2" arrivalPos="43.20" arrivalSpeed="20.62" duration="168.00" routeLength="3745.04" waitingTime="0.00" waitingCount="0" stopTime="0.00" timeLoss="12.81" rerouteNo="1" devices="tripinfo_veh460 routing_veh460" vType="veh_passenger" speedFactor="1.12" vaporized=""/>
    <tripinfo id="veh30" depart="8.00" departLane="30728917_0" departPos="5.10" departSpeed="26.19" departDelay="0.28" arrival="292.00" arrivalLane="427558757#0_0" arrivalPos="38.08" arrivalSpeed="20.11" duration="284.00" routeLength="4950.69" waitingTime="4.00" waitingCount="2" stopTime="0.00" timeLoss="56.61" rerouteNo="1" devices="tripinfo_veh30 routing_veh30" vType="veh_passenger" speedFactor="1.18" vaporized=""/>
    <tripinfo id="veh86" depart="23.00" departLane="977498176#0_1" departPos="5.10" departSpeed="0.00" departDelay="0.88" arrival="295.00" arrivalLane="-561004978_1" arrivalPos="19.64" arrivalSpeed="11.62" duration="272.00" routeLength="3763.36" waitingTime="19.00" waitingCount="2" stopTime="0.00" timeLoss="56.77" rerouteNo="1" devices="tripinfo_veh86 routing_veh86" vType="veh_passenger" speedFactor="1.00" vaporized=""/>
    <tripinfo id="veh34" depart="9.00" departLane="403888823#0_0" departPos="2.60" departSpeed="0.00" departDelay="0.26" arrival="297.00" arrivalLane="237277458_1" arrivalPos="53.16" arrivalSpeed="12.73" duration="288.00" routeLength="3516.88" waitingTime="59.00" waitingCount="5" stopTime="0.00" timeLoss="146.48" rerouteNo="1" devices="tripinfo_veh34 routing_veh34" vType="veh_passenger" speedFactor="0.99" vaporized=""/>
    <tripinfo id="veh463" depart="120.00" departLane="-53826243#2_0" departPos="5.10" departSpeed="0.00" departDelay="0.91" arrival="298.00" arrivalLane="69986854#0_0" arrivalPos="27.34" arrivalSpeed="14.08" duration="178.00" routeLength="2396.56" waitingTime="11.00" waitingCount="2" stopTime="0.00" timeLoss="57.21" rerouteNo="1" devices="tripinfo_veh463 routing_veh463" vType="veh_passenger" speedFactor="1.16" vaporized=""/>
    <tripinfo id="veh115" depart="30.00" departLane="1370956307#0_0" departPos="5.10" departSpeed="0.00" departDelay="0.42" arrival="300.00" arrivalLane="237277458_1" arrivalPos="53.16" arrivalSpeed="12.60" duration="270.00" routeLength="3286.86" waitingTime="65.00" waitingCount="2" stopTime="0.00" timeLoss="119.96" rerouteNo="1" devices="tripinfo_veh115 routing_veh115" vType="veh_passenger" speedFactor="0.92" vaporized=""/>
    <tripinfo id="veh607" depart="178.00" departLane="-332028048#1_0" departPos="5.10" departSpeed="0.00" departDelay="21.88" arrival="302.00" arrivalLane="-508362482#1_0" arrivalPos="210.55" arrivalSpeed="12.39" duration="124.00" routeLength="1721.95" waitingTime="16.00" waitingCount="2" stopTime="0.00" timeLoss="45.69" rerouteNo="1" devices="tripinfo_veh607 routing_veh607" vType="veh_passenger" speedFactor="0.94" vaporized=""/>
    <tripinfo id="veh144" depart="38.00" departLane="187102707#4_0" departPos="5.10" departSpeed="0.00" departDelay="0.96" arrival="304.00" arrivalLane="72875452#1_0" arrivalPos="93.36" arrivalSpeed="19.63" duration="266.00" routeLength="3097.53" waitingTime="6.00" waitingCount="1" stopTime="0.00" timeLoss="42.73" rerouteNo="1" devices="tripinfo_veh144 routing_veh144" vType="veh_passenger" speedFactor="0.73" vaporized=""/>
    <tripinfo id="veh29" depart="8.00" departLane="98742944#1_0" departPos="5.10" departSpeed="0.00" departDelay="0.54" arrival="306.00" arrivalLane="39723586_0" arrivalPos="1940.66" arrivalSpeed="20.59" duration="298.00" routeLength="5607.05" waitingTime="6.00" waitingCount="1" stopTime="0.00" timeLoss="46.87" rerouteNo="1" devices="tripinfo_veh29 routing_veh29" vType="veh_passenger" speedFactor="0.93" vaporized=""/>
    <tripinfo id="veh203" depart="53.00" departLane="1158446383#1-AddedOnRampEdge_1" departPos="5.10" departSpeed="0.00" departDelay="0.79" arrival="306.00" arrivalLane="868601527_0" arrivalPos="229.24" arrivalSpeed="24.06" duration="253.00" routeLength="5269.40" waitingTime="0.00" waitingCount="0" stopTime="0.00" timeLoss="23.12" rerouteNo="1" devices="tripinfo_veh203 routing_veh203" vType="veh_passenger" speedFactor="1.11" vaporized=""/>
    <tripinfo id="veh267" depart="69.00" departLane="-61278284#1_0" departPos="5.10" departSpeed="0.00" departDelay="0.33" arrival="308.00" arrivalLane="890675828#0_0" arrivalPos="50.77" arrivalSpeed="12.15" duration="239.00" routeLength="2379.41" waitingTime="31.00" waitingCount="4" stopTime="0.00" timeLoss="89.12" rerouteNo="1" devices="tripinfo_veh267 routing_veh267" vType="veh_passenger" speedFactor="0.92" vaporized=""/>
    <tripinfo id="veh417" depart="108.00" departLane="1391009648#0_0" departPos="5.10" departSpeed="0.00" departDelay="0.75" arrival="308.00" arrivalLane="1409828553_0" arrivalPos="11.33" arrivalSpeed="11.70" duration="200.00" routeLength="2682.70" waitingTime="7.00" waitingCount="2" stopTime="0.00" timeLoss="51.48" rerouteNo="1" devices="tripinfo_veh417 routing_veh417" vType="veh_passenger" speedFactor="1.11" vaporized=""/>
    <tripinfo id="veh312" depart="81.00" departLane="55930555_0" departPos="5.10" departSpeed="0.00" departDelay="0.75" arrival="309.00" arrivalLane="370582431#1_0" arrivalPos="11.66" arrivalSpeed="18.79" duration="228.00" routeLength="3944.34" waitingTime="0.00" waitingCount="0" stopTime="0.00" timeLoss="35.81" rerouteNo="1" devices="tripinfo_veh312 routing_veh312" vType="veh_passenger" speedFactor="1.11" vaporized=""/>
    <tripinfo id="veh75" depart="20.00" departLane="132760401_0" departPos="5.10" departSpeed="0.00" departDelay="0.71" arrival="310.00" arrivalLane="1323409167#0_0" arrivalPos="394.68" arrivalSpeed="26.10" duration="290.00" routeLength="2661.59" waitingTime="76.00" waitingCount="5" stopTime="0.00" timeLoss="135.80" rerouteNo="1" devices="tripinfo_veh75 routing_veh75" vType="veh_passenger" speedFactor="0.98" vaporized=""/>
    <tripinfo id="veh768" depart="198.00" departLane="28118271_1" departPos="5.10" departSpeed="0.00" departDelay="0.47" arrival="312.00" arrivalLane="387205575_0" arrivalPos="3.16" arrivalSpeed="18.77" duration="114.00" routeLength="1488.21" waitingTime="12.00" waitingCount="1" stopTime="0.00" timeLoss="37.24" rerouteNo="1" devices="tripinfo_veh768 routing_veh768" vType="veh_passenger" speedFactor="1.01" vaporized=""/>
    <tripinfo id="veh16" depart="5.00" departLane="23074687_0" departPos="5.10" departSpeed="12.20" departDelay="0.88" arrival="313.00" arrivalLane="312982855_2" arrivalPos="3.43" arrivalSpeed="9.98" duration="308.00" routeLength="4621.43" waitingTime="0.00" waitingCount="0" stopTime="0.00" timeLoss="21.44" rerouteNo="1" devices="tripinfo_veh16 routing_veh16" vType="veh_passenger" speedFactor="0.88" vaporized=""/>
    <tripinfo id="veh1075" depart="277.00" departLane="195571837#0_1" departPos="5.10" departSpeed="0.00" departDelay="0.50" arrival="313.00" arrivalLane="205499469_0" arrivalPos="195.19" arrivalSpeed="11.74" duration="36.00" routeLength="373.89" waitingTime="0.00" waitingCount="0" stopTime="0.00" timeLoss="4.62" rerouteNo="0" devices="tripinfo_veh1075 routing_veh1075" vType="veh_passenger" speedFactor="0.88" vaporized=""/>
    <tripinfo id="veh326" depart="84.00" departLane="57732283#0_1" departPos="5.10" departSpeed="0.00" departDelay="0.15" arrival="314.00" arrivalLane="38622294_0" arrivalPos="228.49" arrivalSpeed="7.66" duration="230.00" routeLength="1903.05" waitingTime="87.00" waitingCount="4" stopTime="0.00" timeLoss="139.12" rerouteNo="1" devices="tripinfo_veh326 routing_veh326" vType="veh_passenger" speedFactor="0.93" vaporized=""/>
    <tripinfo id="veh257" depart="67.00" departLane="-638988798_0" departPos="5.10" departSpeed="0.00" departDelay="0.90" arrival="315.00" arrivalLane="-208421637#2_0" arrivalPos="21.85" arrivalSpeed="17.92" duration="248.00" routeLength="3987.67" waitingTime="10.00" waitingCount="2" stopTime="0.00" timeLoss="49.72" rerouteNo="1" devices="tripinfo_veh257 routing_veh257" vType="veh_passenger" speedFactor="1.30" vaporized=""/>