<?xml version="1.0" encoding="UTF-8"?>

<!-- generated on 2025-07-23 13:10:48 by Eclipse SUMO GUI Version 1.23.1
<sumoConfiguration xmlns:xsi="http://www.w3.org/2001/XMLSchema-instance" xsi:noNamespaceSchemaLocation="http://sumo.dlr.de/xsd/sumoConfiguration.xsd">

    <input>
        <net-file value="runs/25-07-23-13-10-46/network.net.xml"/>
        <route-files value="runs/25-07-23-13-10-46/routes.rou.xml"/>
        <additional-files value="runs/25-07-23-13-10-46/infrastructure.add.xml"/>
    </input>

    <output>
        <tripinfo-output value="runs/25-07-23-13-10-46/tripinfos.xml"/>
        <statistic-output value="runs/25-07-23-13-10-46/stats.xml"/>
    </output>

    <processing>
        <ignore-route-errors value="true"/>
        <tls.actuated.jam-threshold value="30"/>
    </processing>

    <routing>
        <device.rerouting.adaptation-steps value="18"/>
        <device.rerouting.adaptation-interval value="10"/>
    </routing>

    <report>
        <verbose value="true"/>
        <duration-log.statistics value="true"/>
        <no-step-log value="true"/>
    </report>

    <traci_server>
        <remote-port value="36443"/>
    </traci_server>

    <gui_only>
        <gui-settings-file value="runs/25-07-23-13-10-46/osm.view.xml"/>
    </gui_only>

</sumoConfiguration>
-->

<tripinfos xmlns:xsi="http://www.w3.org/2001/XMLSchema-instance" xsi:noNamespaceSchemaLocation="http://sumo.dlr.de/xsd/tripinfo_file.xsd">
</tripinfos>
