<?xml version="1.0" encoding="UTF-8"?>

<!-- generated on 2025-07-23 11:45:44 by Eclipse SUMO GUI Version 1.23.1
<sumoConfiguration xmlns:xsi="http://www.w3.org/2001/XMLSchema-instance" xsi:noNamespaceSchemaLocation="http://sumo.dlr.de/xsd/sumoConfiguration.xsd">

    <input>
        <net-file value="./sevilla/network.net.xml"/>
        <route-files value="./sevilla/routes.rou.xml"/>
        <additional-files value="./sevilla/infrastructure.add.xml"/>
    </input>

    <output>
        <tripinfo-output value="./sevilla/tripinfos.xml"/>
        <statistic-output value="./sevilla/stats.xml"/>
    </output>

    <processing>
        <ignore-route-errors value="true"/>
        <tls.actuated.jam-threshold value="30"/>
    </processing>

    <routing>
        <device.rerouting.adaptation-steps value="18"/>
        <device.rerouting.adaptation-interval value="10"/>
    </routing>

    <report>
        <verbose value="true"/>
        <duration-log.statistics value="true"/>
        <no-step-log value="true"/>
    </report>

    <gui_only>
        <gui-settings-file value="./sevilla/osm.view.xml"/>
    </gui_only>

</sumoConfiguration>
-->

<meandata xmlns:xsi="http://www.w3.org/2001/XMLSchema-instance" xsi:noNamespaceSchemaLocation="http://sumo.dlr.de/xsd/meandata_file.xsd">
    <interval begin="0.00" end="3600.00" id="wizard_example">
        <edge id="-1000927079" sampledSeconds="0.00" departed="0" arrived="0" entered="0" left="0" laneChangedFrom="0" laneChangedTo="0"/>
        <edge id="-1019254303" sampledSeconds="164.11" traveltime="10.19" overlapTraveltime="11.10" density="0.59" laneDensity="0.59" occupancy="0.27" waitingTime="0.00" timeLoss="19.69" speed="7.46" speedRelative="0.90" departed="0" arrived="11" entered="15" left="4" laneChangedFrom="0" laneChangedTo="0"/>
        <edge id="-1019254304" sampledSeconds="62.85" traveltime="5.28" overlapTraveltime="6.05" density="0.62" laneDensity="0.62" occupancy="0.28" waitingTime="11.00" timeLoss="39.17" speed="5.48" speedRelative="0.39" departed="4" arrived="0" entered="7" left="11" laneChangedFrom="0" laneChangedTo="0"/>
        <edge id="-1044163467#1" sampledSeconds="2575.74" traveltime="10.17" overlapTraveltime="10.39" density="4.45" laneDensity="2.22" occupancy="1.06" waitingTime="0.00" timeLoss="1078.12" speed="15.95" speedRelative="0.57" departed="3" arrived="3" entered="245" left="245" laneChangedFrom="161" laneChangedTo="161"/>
        <edge id="-1056895529#0" sampledSeconds="613.16" traveltime="6.22" overlapTraveltime="6.72" density="7.25" laneDensity="3.62" occupancy="1.67" waitingTime="310.00" timeLoss="517.99" speed="4.24" speedRelative="0.15" departed="10" arrived="3" entered="84" left="90" laneChangedFrom="2" laneChangedTo="2"/>
        <edge id="-1056895529#1" sampledSeconds="846.67" traveltime="9.82" overlapTraveltime="10.81" density="9.58" laneDensity="4.79" occupancy="2.25" waitingTime="440.00" timeLoss="755.61" speed="2.73" speedRelative="0.10" departed="4" arrived="0" entered="75" left="79" laneChangedFrom="3" laneChangedTo="3"/>
        <edge id="-1086372857#1" sampledSeconds="5776.95" traveltime="28.03" overlapTraveltime="29.10" density="61.04" laneDensity="30.52" occupancy="14.54" waitingTime="4697.00" timeLoss="5527.86" speed="1.08" speedRelative="0.04" departed="5" arrived="1" entered="199" left="196" laneChangedFrom="23" laneChangedTo="24"/>
        <edge id="-1121908324#1" sampledSeconds="7047.54" traveltime="32.03" overlapTraveltime="32.98" density="7.29" laneDensity="7.29" occupancy="3.59" waitingTime="2068.00" timeLoss="4858.45" speed="8.29" speedRelative="0.30" departed="3" arrived="0" entered="211" left="210" laneChangedFrom="0" laneChangedTo="0"/>
        <edge id="-1121908324#5" sampledSeconds="3610.17" traveltime="12.49" overlapTraveltime="13.02" density="4.31" laneDensity="4.31" occupancy="2.08" waitingTime="47.00" timeLoss="1165.28" speed="18.24" speedRelative="0.66" departed="1" arrived="2" entered="278" left="277" laneChangedFrom="0" laneChangedTo="0"/>
        <edge id="-1137958420" sampledSeconds="2028.72" traveltime="26.17" overlapTraveltime="26.68" density="1.71" laneDensity="0.86" occupancy="0.42" waitingTime="0.00" timeLoss="200.59" speed="12.51" speedRelative="0.90" departed="7" arrived="4" entered="71" left="71" laneChangedFrom="63" laneChangedTo="63"/>
        <edge id="-1137958425" sampledSeconds="1103.35" traveltime="13.97" overlapTraveltime="14.59" density="2.92" laneDensity="1.46" occupancy="0.70" waitingTime="0.00" timeLoss="128.78" speed="7.53" speedRelative="0.90" departed="6" arrived="5" entered="70" left="71" laneChangedFrom="30" laneChangedTo="30"/>
        <edge id="-1138018269" sampledSeconds="829.04" traveltime="4.58" overlapTraveltime="4.97" density="2.54" laneDensity="1.27" occupancy="0.60" waitingTime="6.00" timeLoss="87.79" speed="19.27" speedRelative="0.87" departed="4" arrived="5" entered="163" left="162" laneChangedFrom="0" laneChangedTo="0"/>
        <edge id="-113880132" sampledSeconds="3342.03" traveltime="7.06" overlapTraveltime="7.26" density="5.36" laneDensity="2.68" occupancy="1.30" waitingTime="0.00" timeLoss="347.71" speed="24.56" speedRelative="0.88" departed="5" arrived="2" entered="456" left="458" laneChangedFrom="16" laneChangedTo="16"/>
        <edge id="-113880679#0" sampledSeconds="5441.49" traveltime="11.17" overlapTraveltime="11.84" density="9.60" laneDensity="4.80" occupancy="2.29" waitingTime="133.00" timeLoss="2661.83" speed="13.73" speedRelative="0.49" departed="10" arrived="4" entered="450" left="456" laneChangedFrom="26" laneChangedTo="26"/>
        <edge id="-113880679#1" sampledSeconds="4436.50" traveltime="10.07" overlapTraveltime="10.64" density="13.52" laneDensity="6.76" occupancy="3.26" waitingTime="1238.00" timeLoss="2968.44" speed="9.04" speedRelative="0.33" departed="3" arrived="4" entered="416" left="408" laneChangedFrom="3" laneChangedTo="3"/>
        <edge id="-113880679#2" sampledSeconds="1935.16" traveltime="4.38" overlapTraveltime="4.62" density="5.24" laneDensity="2.62" occupancy="1.24" waitingTime="15.00" timeLoss="282.87" speed="23.29" speedRelative="0.84" departed="3" arrived="8" entered="416" left="411" laneChangedFrom="0" laneChangedTo="0"/>
        <edge id="-1156001077" sampledSeconds="18686.24" traveltime="291.22" overlapTraveltime="294.30" density="36.61" laneDensity="18.30" occupancy="9.13" waitingTime="17050.00" timeLoss="18020.39" speed="0.50" speedRelative="0.04" departed="10" arrived="4" entered="55" left="53" laneChangedFrom="28" laneChangedTo="28" teleported="4"/>
        <edge id="-1160122274" sampledSeconds="2816.15" traveltime="9.59" overlapTraveltime="9.96" density="5.32" laneDensity="1.77" occupancy="0.85" waitingTime="0.00" timeLoss="1252.10" speed="15.28" speedRelative="0.55" departed="4" arrived="10" entered="279" left="273" laneChangedFrom="86" laneChangedTo="86"/>
        <edge id="-117107052" sampledSeconds="478.35" traveltime="1.81" overlapTraveltime="2.69" density="7.23" laneDensity="7.23" occupancy="2.57" waitingTime="77.00" timeLoss="284.04" speed="8.71" speedRelative="0.39" departed="4" arrived="4" entered="175" left="175" laneChangedFrom="0" laneChangedTo="0"/>
        <edge id="-122193817" sampledSeconds="9863.04" traveltime="56.10" overlapTraveltime="57.03" density="7.33" laneDensity="7.33" occupancy="3.63" waitingTime="5310.00" timeLoss="7464.45" speed="6.64" speedRelative="0.24" departed="4" arrived="1" entered="169" left="172" laneChangedFrom="0" laneChangedTo="0"/>
        <edge id="-1229272302#0" sampledSeconds="207.55" traveltime="5.56" overlapTraveltime="6.30" density="0.93" laneDensity="0.93" occupancy="0.42" waitingTime="0.00" timeLoss="86.37" speed="10.67" speedRelative="0.48" departed="0" arrived="2" entered="33" left="31" laneChangedFrom="0" laneChangedTo="0"/>
        <edge id="-1229272302#1" sampledSeconds="15.95" traveltime="2.18" overlapTraveltime="4.24" density="0.26" laneDensity="0.26" occupancy="0.10" waitingTime="2.00" timeLoss="9.65" speed="5.13" speedRelative="0.23" departed="1" arrived="0" entered="3" left="4" laneChangedFrom="0" laneChangedTo="0"/>
        <edge id="-1229272302#2" sampledSeconds="261.04" traveltime="13.66" overlapTraveltime="15.44" density="0.30" laneDensity="0.30" occupancy="0.14" waitingTime="6.00" timeLoss="65.00" speed="15.89" speedRelative="0.71" departed="4" arrived="3" entered="13" left="14" laneChangedFrom="0" laneChangedTo="0"/>
        <edge id="-1241770981" sampledSeconds="291.17" traveltime="5.45" overlapTraveltime="6.45" density="4.31" laneDensity="2.15" occupancy="0.97" waitingTime="112.00" timeLoss="235.00" speed="3.69" speedRelative="0.17" departed="2" arrived="5" entered="44" left="41" laneChangedFrom="1" laneChangedTo="1"/>
        <edge id="-124717943#1" sampledSeconds="920.89" traveltime="3.66" overlapTraveltime="3.92" density="3.40" laneDensity="3.40" occupancy="1.59" waitingTime="0.00" timeLoss="60.74" speed="20.46" speedRelative="0.92" departed="3" arrived="2" entered="232" left="233" laneChangedFrom="0" laneChangedTo="0"/>
        <edge id="-127393859#10" sampledSeconds="1324.40" traveltime="46.96" overlapTraveltime="47.35" density="0.39" laneDensity="0.19" occupancy="0.10" waitingTime="0.00" timeLoss="127.65" speed="20.11" speedRelative="0.91" departed="5" arrived="9" entered="23" left="19" laneChangedFrom="6" laneChangedTo="6"/>
        <edge id="-127720113" sampledSeconds="177.26" traveltime="19.05" overlapTraveltime="19.99" density="0.14" laneDensity="0.14" occupancy="0.07" waitingTime="1.00" timeLoss="36.65" speed="17.53" speedRelative="0.79" departed="9" arrived="0" entered="0" left="9" laneChangedFrom="0" laneChangedTo="0"/>
        <edge id="-129211897" sampledSeconds="655.61" traveltime="72.68" overlapTraveltime="72.93" density="0.13" laneDensity="0.13" occupancy="0.07" waitingTime="0.00" timeLoss="52.97" speed="18.91" speedRelative="0.85" departed="3" arrived="0" entered="6" left="9" laneChangedFrom="0" laneChangedTo="0"/>
        <edge id="-1298616762" sampledSeconds="520.07" traveltime="38.52" overlapTraveltime="40.19" density="0.15" laneDensity="0.15" occupancy="0.07" waitingTime="7.00" timeLoss="62.03" speed="23.73" speedRelative="0.85" departed="11" arrived="0" entered="2" left="13" laneChangedFrom="0" laneChangedTo="0"/>
        <edge id="-1303420787#1" sampledSeconds="8678.44" traveltime="53.57" overlapTraveltime="54.20" density="5.96" laneDensity="2.98" occupancy="1.47" waitingTime="3.00" timeLoss="853.80" speed="7.55" speedRelative="0.91" departed="7" arrived="7" entered="156" left="153" laneChangedFrom="162" laneChangedTo="162"/>
        <edge id="-132203511" sampledSeconds="865.30" traveltime="5.71" overlapTraveltime="5.98" density="2.25" laneDensity="2.25" occupancy="1.07" waitingTime="0.00" timeLoss="129.96" speed="18.74" speedRelative="0.84" departed="4" arrived="2" entered="141" left="143" laneChangedFrom="0" laneChangedTo="0"/>
        <edge id="-1329337773" sampledSeconds="108.43" traveltime="6.26" overlapTraveltime="6.67" density="0.33" laneDensity="0.33" occupancy="0.15" waitingTime="0.00" timeLoss="49.26" speed="14.60" speedRelative="0.53" departed="3" arrived="3" entered="14" left="13" laneChangedFrom="0" laneChangedTo="0"/>
        <edge id="-1342183270" sampledSeconds="92.97" traveltime="0.05" overlapTraveltime="3.35" density="129.13" laneDensity="64.56" occupancy="1.27" waitingTime="46.00" timeLoss="66.20" speed="1.55" speedRelative="0.06" departed="3" arrived="2" entered="26" left="27" laneChangedFrom="1" laneChangedTo="1"/>
        <edge id="-1342183271#0" sampledSeconds="137.62" traveltime="7.48" overlapTraveltime="7.77" density="0.38" laneDensity="0.19" occupancy="0.09" waitingTime="0.00" timeLoss="64.10" speed="13.66" speedRelative="0.49" departed="6" arrived="5" entered="12" left="13" laneChangedFrom="10" laneChangedTo="10"/>
        <edge id="-1342183271#1" sampledSeconds="52.67" traveltime="4.01" overlapTraveltime="4.43" density="0.54" laneDensity="0.27" occupancy="0.12" waitingTime="0.00" timeLoss="37.78" speed="7.21" speedRelative="0.26" departed="7" arrived="1" entered="6" left="12" laneChangedFrom="6" laneChangedTo="6"/>
        <edge id="-1353127832#0" sampledSeconds="300.82" traveltime="17.02" overlapTraveltime="17.76" density="0.33" laneDensity="0.33" occupancy="0.16" waitingTime="43.00" timeLoss="101.52" speed="14.33" speedRelative="0.64" departed="3" arrived="5" entered="14" left="12" laneChangedFrom="0" laneChangedTo="0"/>
        <edge id="-1353127832#1" sampledSeconds="147.55" traveltime="5.91" overlapTraveltime="6.47" density="0.53" laneDensity="0.53" occupancy="0.24" waitingTime="0.00" timeLoss="59.28" speed="12.78" speedRelative="0.58" departed="3" arrived="4" entered="20" left="19" laneChangedFrom="0" laneChangedTo="0"/>
        <edge id="-135516567" sampledSeconds="4380.32" traveltime="11.46" overlapTraveltime="12.16" density="10.40" laneDensity="3.47" occupancy="1.66" waitingTime="236.00" timeLoss="1172.12" speed="10.04" speedRelative="0.72" departed="14" arrived="4" entered="347" left="357" laneChangedFrom="106" laneChangedTo="106"/>
        <edge id="-135737407" sampledSeconds="3425.65" traveltime="7.87" overlapTraveltime="8.06" density="4.93" laneDensity="4.93" occupancy="2.40" waitingTime="0.00" timeLoss="406.69" speed="24.58" speedRelative="0.88" departed="2" arrived="3" entered="423" left="422" laneChangedFrom="0" laneChangedTo="0"/>
        <edge id="-1368388731#1" sampledSeconds="2859.60" traveltime="40.92" overlapTraveltime="42.11" density="1.99" laneDensity="0.66" occupancy="0.32" waitingTime="450.00" timeLoss="835.90" speed="9.62" speedRelative="0.69" departed="6" arrived="1" entered="62" left="67" laneChangedFrom="60" laneChangedTo="60"/>
        <edge id="-1368388731#2" sampledSeconds="4334.12" traveltime="72.80" overlapTraveltime="74.48" density="80.96" laneDensity="26.99" occupancy="13.33" waitingTime="3999.00" timeLoss="4245.14" speed="0.27" speedRelative="0.02" departed="4" arrived="3" entered="56" left="55" laneChangedFrom="26" laneChangedTo="26"/>
        <edge id="-1370956307#2" sampledSeconds="94.41" traveltime="6.26" overlapTraveltime="6.75" density="0.24" laneDensity="0.24" occupancy="0.11" waitingTime="0.00" timeLoss="32.71" speed="17.05" speedRelative="0.61" departed="0" arrived="10" entered="14" left="4" laneChangedFrom="0" laneChangedTo="0"/>
        <edge id="-1370956307#3" sampledSeconds="948.87" traveltime="7.63" overlapTraveltime="10.95" density="6.05" laneDensity="6.05" occupancy="2.35" waitingTime="363.00" timeLoss="744.56" speed="4.44" speedRelative="0.16" departed="3" arrived="1" entered="84" left="86" laneChangedFrom="0" laneChangedTo="0"/>
        <edge id="-1371910960" sampledSeconds="0.00" departed="0" arrived="0" entered="0" left="0" laneChangedFrom="0" laneChangedTo="0"/>
        <edge id="-1372160681#2" sampledSeconds="183.10" traveltime="7.24" overlapTraveltime="8.07" density="0.86" laneDensity="0.86" occupancy="0.39" waitingTime="11.00" timeLoss="78.60" speed="7.97" speedRelative="0.57" departed="4" arrived="1" entered="19" left="22" laneChangedFrom="0" laneChangedTo="0"/>
        <edge id="-1372216573#3" sampledSeconds="10953.49" traveltime="69.84" overlapTraveltime="71.30" density="2.52" laneDensity="1.26" occupancy="0.62" waitingTime="833.00" timeLoss="2345.06" speed="17.03" speedRelative="0.77" departed="2" arrived="4" entered="156" left="149" laneChangedFrom="246" laneChangedTo="246"/>
        <edge id="-1373888461" sampledSeconds="1078.72" traveltime="5.48" overlapTraveltime="5.93" density="2.99" laneDensity="1.49" occupancy="0.70" waitingTime="0.00" timeLoss="203.17" speed="17.74" speedRelative="0.80" departed="4" arrived="3" entered="178" left="179" laneChangedFrom="0" laneChangedTo="0"/>
        <edge id="-1374303295" sampledSeconds="142.42" traveltime="0.79" overlapTraveltime="1.09" density="3.42" laneDensity="3.42" occupancy="1.19" waitingTime="0.00" timeLoss="44.56" speed="15.22" speedRelative="0.68" departed="1" arrived="1" entered="130" left="130" laneChangedFrom="0" laneChangedTo="0"/>
        <edge id="-1374303298" sampledSeconds="39.80" traveltime="0.08" overlapTraveltime="0.38" density="6.91" laneDensity="6.91" occupancy="0.86" waitingTime="0.00" timeLoss="7.65" speed="17.25" speedRelative="0.78" departed="4" arrived="0" entered="101" left="105" laneChangedFrom="0" laneChangedTo="0"/>
        <edge id="-1374303304" sampledSeconds="1669.51" traveltime="6.14" overlapTraveltime="6.40" density="4.55" laneDensity="2.27" occupancy="1.07" waitingTime="0.00" timeLoss="401.05" speed="16.71" speedRelative="0.75" departed="4" arrived="7" entered="257" left="254" laneChangedFrom="0" laneChangedTo="0"/>
        <edge id="-1376669697" sampledSeconds="17049.58" traveltime="147.78" overlapTraveltime="149.17" density="23.33" laneDensity="11.66" occupancy="5.81" waitingTime="12408.00" timeLoss="15944.12" speed="1.39" speedRelative="0.06" departed="7" arrived="1" entered="116" left="102" laneChangedFrom="0" laneChangedTo="0"/>
        <edge id="-1382373141#1" sampledSeconds="75.63" traveltime="6.01" overlapTraveltime="6.33" density="0.27" laneDensity="0.27" occupancy="0.12" waitingTime="0.00" timeLoss="38.78" speed="13.27" speedRelative="0.48" departed="0" arrived="11" entered="12" left="1" laneChangedFrom="0" laneChangedTo="0"/>
        <edge id="-139289310" sampledSeconds="748.83" traveltime="67.06" overlapTraveltime="68.12" density="0.16" laneDensity="0.16" occupancy="0.08" waitingTime="0.00" timeLoss="53.60" speed="18.68" speedRelative="0.84" departed="2" arrived="5" entered="9" left="6" laneChangedFrom="0" laneChangedTo="0"/>
        <edge id="-142236550" sampledSeconds="466.44" traveltime="28.99" overlapTraveltime="29.40" density="0.22" laneDensity="0.22" occupancy="0.11" waitingTime="0.00" timeLoss="21.94" speed="20.62" speedRelative="0.93" departed="16" arrived="0" entered="0" left="16" laneChangedFrom="0" laneChangedTo="0"/>
        <edge id="-142502375#3" sampledSeconds="20065.46" traveltime="206.21" overlapTraveltime="207.80" density="27.11" laneDensity="27.11" occupancy="13.50" waitingTime="16918.00" timeLoss="19318.36" speed="1.01" speedRelative="0.04" departed="5" arrived="2" entered="104" left="81" laneChangedFrom="0" laneChangedTo="0"/>
        <edge id="-142502376" sampledSeconds="713.09" traveltime="8.78" overlapTraveltime="9.56" density="37.37" laneDensity="37.37" occupancy="15.05" waitingTime="562.00" timeLoss="683.83" speed="1.08" speedRelative="0.04" departed="4" arrived="1" entered="73" left="76" laneChangedFrom="0" laneChangedTo="0"/>
        <edge id="-146400216" sampledSeconds="244.86" traveltime="4.29" overlapTraveltime="4.92" density="2.18" laneDensity="2.18" occupancy="0.95" waitingTime="0.00" timeLoss="47.30" speed="7.36" speedRelative="0.88" departed="1" arrived="2" entered="49" left="48" laneChangedFrom="0" laneChangedTo="0"/>
        <edge id="-157502405" sampledSeconds="52.36" traveltime="5.54" overlapTraveltime="5.85" density="0.17" laneDensity="0.17" occupancy="0.08" waitingTime="0.00" timeLoss="15.57" speed="15.77" speedRelative="0.71" departed="1" arrived="0" entered="8" left="9" laneChangedFrom="0" laneChangedTo="0"/>
        <edge id="-157502407#1" sampledSeconds="210.15" traveltime="17.03" overlapTraveltime="17.54" density="0.19" laneDensity="0.19" occupancy="0.09" waitingTime="0.00" timeLoss="43.03" speed="17.60" speedRelative="0.79" departed="1" arrived="4" entered="11" left="8" laneChangedFrom="0" laneChangedTo="0"/>
        <edge id="-157502421" sampledSeconds="86.83" traveltime="2.49" overlapTraveltime="3.52" density="1.30" laneDensity="1.30" occupancy="0.50" waitingTime="5.00" timeLoss="46.11" speed="6.68" speedRelative="0.30" departed="1" arrived="1" entered="24" left="24" laneChangedFrom="0" laneChangedTo="0"/>
        <edge id="-157534940#1" sampledSeconds="312.00" traveltime="10.82" overlapTraveltime="11.57" density="0.61" laneDensity="0.61" occupancy="0.29" waitingTime="22.00" timeLoss="127.09" speed="12.70" speedRelative="0.57" departed="1" arrived="1" entered="26" left="26" laneChangedFrom="0" laneChangedTo="0"/>
        <edge id="-160568897" sampledSeconds="638.26" traveltime="12.04" overlapTraveltime="12.54" density="0.82" laneDensity="0.82" occupancy="0.40" waitingTime="0.00" timeLoss="131.33" speed="17.63" speedRelative="0.79" departed="4" arrived="1" entered="47" left="50" laneChangedFrom="0" laneChangedTo="0"/>
        <edge id="-170811632" sampledSeconds="1005.34" traveltime="7.27" overlapTraveltime="7.56" density="1.56" laneDensity="1.56" occupancy="0.75" waitingTime="0.00" timeLoss="110.86" speed="24.34" speedRelative="0.88" departed="2" arrived="4" entered="131" left="129" laneChangedFrom="0" laneChangedTo="0"/>
        <edge id="-172137212" sampledSeconds="3368.29" traveltime="42.21" overlapTraveltime="43.01" density="1.14" laneDensity="1.14" occupancy="0.56" waitingTime="26.00" timeLoss="408.72" speed="19.27" speedRelative="0.87" departed="0" arrived="2" entered="79" left="76" laneChangedFrom="0" laneChangedTo="0"/>
        <edge id="-172137227#0" sampledSeconds="97.05" traveltime="3.26" overlapTraveltime="3.65" density="0.66" laneDensity="0.66" occupancy="0.29" waitingTime="0.00" timeLoss="41.27" speed="12.58" speedRelative="0.57" departed="3" arrived="2" entered="24" left="25" laneChangedFrom="0" laneChangedTo="0"/>
        <edge id="-172137227#1" sampledSeconds="157.80" traveltime="6.98" overlapTraveltime="7.22" density="0.46" laneDensity="0.46" occupancy="0.22" waitingTime="0.00" timeLoss="61.19" speed="13.82" speedRelative="0.62" departed="3" arrived="3" entered="19" left="19" laneChangedFrom="0" laneChangedTo="0"/>
        <edge id="-173076714#2" sampledSeconds="485.88" traveltime="19.33" overlapTraveltime="21.22" density="0.61" laneDensity="0.31" occupancy="0.15" waitingTime="160.00" timeLoss="281.40" speed="10.62" speedRelative="0.38" departed="3" arrived="4" entered="20" left="19" laneChangedFrom="1" laneChangedTo="1"/>
        <edge id="-177343973" sampledSeconds="1207.64" traveltime="11.29" overlapTraveltime="11.63" density="1.18" laneDensity="1.18" occupancy="0.58" waitingTime="0.00" timeLoss="114.56" speed="24.86" speedRelative="0.89" departed="6" arrived="6" entered="98" left="98" laneChangedFrom="0" laneChangedTo="0"/>
        <edge id="-182183037#1" sampledSeconds="8627.30" traveltime="42.00" overlapTraveltime="43.26" density="5.99" laneDensity="3.00" occupancy="1.47" waitingTime="1596.00" timeLoss="2791.60" speed="9.36" speedRelative="0.67" departed="3" arrived="3" entered="197" left="195" laneChangedFrom="127" laneChangedTo="127"/>
        <edge id="-183454727#4" sampledSeconds="15833.38" traveltime="166.12" overlapTraveltime="167.06" density="26.77" laneDensity="13.38" occupancy="6.66" waitingTime="13555.00" timeLoss="15236.84" speed="1.01" speedRelative="0.04" departed="5" arrived="3" entered="90" left="91" laneChangedFrom="5" laneChangedTo="5" teleported="1"/>
        <edge id="-183975086" sampledSeconds="519.60" traveltime="16.55" overlapTraveltime="17.18" density="0.47" laneDensity="0.47" occupancy="0.23" waitingTime="0.00" timeLoss="91.60" speed="18.03" speedRelative="0.81" departed="1" arrived="3" entered="30" left="27" laneChangedFrom="0" laneChangedTo="0"/>
        <edge id="-184908997#2" sampledSeconds="525.92" traveltime="13.75" overlapTraveltime="14.63" density="0.98" laneDensity="0.98" occupancy="0.46" waitingTime="87.00" timeLoss="257.32" speed="10.56" speedRelative="0.48" departed="0" arrived="4" entered="36" left="32" laneChangedFrom="0" laneChangedTo="0"/>
        <edge id="-186184931#9" sampledSeconds="20511.72" traveltime="53.42" overlapTraveltime="54.29" density="8.61" laneDensity="4.31" occupancy="2.13" waitingTime="21.00" timeLoss="2036.17" speed="12.27" speedRelative="0.88" departed="3" arrived="2" entered="378" left="373" laneChangedFrom="91" laneChangedTo="91"/>
        <edge id="-186485143#1" sampledSeconds="2228.17" traveltime="17.68" overlapTraveltime="17.95" density="1.93" laneDensity="1.93" occupancy="0.94" waitingTime="0.00" timeLoss="383.03" speed="18.16" speedRelative="0.82" departed="2" arrived="5" entered="123" left="118" laneChangedFrom="0" laneChangedTo="0"/>
        <edge id="-186526645" sampledSeconds="239.31" traveltime="0.90" overlapTraveltime="1.36" density="14.33" laneDensity="14.33" occupancy="4.12" waitingTime="66.00" timeLoss="144.71" speed="7.08" speedRelative="0.32" departed="2" arrived="3" entered="175" left="174" laneChangedFrom="0" laneChangedTo="0"/>
        <edge id="-186526646#3" sampledSeconds="5358.13" traveltime="33.37" overlapTraveltime="34.04" density="2.32" laneDensity="2.32" occupancy="1.15" waitingTime="0.00" timeLoss="676.26" speed="18.95" speedRelative="0.85" departed="1" arrived="4" entered="157" left="153" laneChangedFrom="0" laneChangedTo="0"/>
        <edge id="-190063815#2" sampledSeconds="4111.78" traveltime="43.06" overlapTraveltime="44.23" density="3.27" laneDensity="3.27" occupancy="1.61" waitingTime="1889.00" timeLoss="2575.91" speed="8.01" speedRelative="0.36" departed="1" arrived="2" entered="92" left="91" laneChangedFrom="0" laneChangedTo="0"/>
        <edge id="-190111970#3" sampledSeconds="19370.68" traveltime="279.34" overlapTraveltime="282.19" density="51.02" laneDensity="51.02" occupancy="25.45" waitingTime="18259.00" timeLoss="18993.94" speed="0.39" speedRelative="0.02" departed="6" arrived="0" entered="65" left="64" laneChangedFrom="0" laneChangedTo="0" teleported="5"/>
        <edge id="-195567980" sampledSeconds="3282.82" traveltime="15.64" overlapTraveltime="16.02" density="4.53" laneDensity="2.27" occupancy="1.10" waitingTime="0.00" timeLoss="213.54" speed="12.88" speedRelative="0.93" departed="1" arrived="3" entered="204" left="202" laneChangedFrom="54" laneChangedTo="54"/>
        <edge id="-195571137" sampledSeconds="6283.21" traveltime="15.79" overlapTraveltime="16.72" density="10.58" laneDensity="3.53" occupancy="1.69" waitingTime="130.00" timeLoss="3953.79" speed="10.17" speedRelative="0.37" departed="7" arrived="4" entered="369" left="372" laneChangedFrom="126" laneChangedTo="126"/>
        <edge id="-195574850" sampledSeconds="368.71" traveltime="45.58" overlapTraveltime="46.23" density="0.12" laneDensity="0.12" occupancy="0.06" waitingTime="0.00" timeLoss="51.17" speed="17.91" speedRelative="0.81" departed="4" arrived="2" entered="4" left="6" laneChangedFrom="0" laneChangedTo="0"/>
        <edge id="-196782992" sampledSeconds="181.03" traveltime="12.72" overlapTraveltime="13.07" density="0.25" laneDensity="0.25" occupancy="0.12" waitingTime="0.00" timeLoss="50.37" speed="16.03" speedRelative="0.72" departed="6" arrived="2" entered="8" left="12" laneChangedFrom="0" laneChangedTo="0"/>
        <edge id="-19747258" sampledSeconds="238.97" traveltime="5.13" overlapTraveltime="5.52" density="1.10" laneDensity="0.55" occupancy="0.26" waitingTime="0.00" timeLoss="31.43" speed="11.84" speedRelative="0.85" departed="7" arrived="5" entered="37" left="39" laneChangedFrom="1" laneChangedTo="1"/>
        <edge id="-19747779" sampledSeconds="253.81" traveltime="0.80" overlapTraveltime="3.27" density="6.49" laneDensity="3.25" occupancy="1.17" waitingTime="144.00" timeLoss="187.25" speed="4.86" speedRelative="0.17" departed="4" arrived="4" entered="75" left="75" laneChangedFrom="0" laneChangedTo="0"/>
        <edge id="-19747856" sampledSeconds="870.71" traveltime="10.77" overlapTraveltime="11.06" density="1.07" laneDensity="0.53" occupancy="0.26" waitingTime="0.00" timeLoss="205.60" speed="20.91" speedRelative="0.75" departed="7" arrived="3" entered="72" left="75" laneChangedFrom="9" laneChangedTo="9"/>
        <edge id="-19747865" sampledSeconds="418.75" traveltime="5.22" overlapTraveltime="5.59" density="1.75" laneDensity="0.58" occupancy="0.27" waitingTime="0.00" timeLoss="52.13" speed="12.80" speedRelative="0.92" departed="3" arrived="3" entered="73" left="72" laneChangedFrom="3" laneChangedTo="3"/>
        <edge id="-19753727#3" sampledSeconds="0.00" departed="0" arrived="0" entered="0" left="0" laneChangedFrom="0" laneChangedTo="0"/>
        <edge id="-19783394" sampledSeconds="8870.92" traveltime="46.22" overlapTraveltime="46.53" density="3.32" laneDensity="1.11" occupancy="0.55" waitingTime="0.00" timeLoss="350.86" speed="16.04" speedRelative="0.96" departed="0" arrived="0" entered="192" left="188" laneChangedFrom="81" laneChangedTo="81"/>
        <edge id="-207283319" sampledSeconds="494.47" traveltime="5.26" overlapTraveltime="5.67" density="2.10" laneDensity="1.05" occupancy="0.49" waitingTime="0.00" timeLoss="68.04" speed="12.42" speedRelative="0.89" departed="4" arrived="4" entered="84" left="84" laneChangedFrom="28" laneChangedTo="28"/>
        <edge id="-208421637#2" sampledSeconds="6866.95" traveltime="37.09" overlapTraveltime="38.33" density="87.26" laneDensity="43.63" occupancy="21.37" waitingTime="5731.00" timeLoss="6518.39" speed="0.70" speedRelative="0.05" departed="6" arrived="5" entered="178" left="173" laneChangedFrom="21" laneChangedTo="21"/>
        <edge id="-208421649#4" sampledSeconds="11327.11" traveltime="44.95" overlapTraveltime="45.62" density="9.62" laneDensity="3.21" occupancy="1.59" waitingTime="3660.00" timeLoss="5238.08" speed="7.28" speedRelative="0.52" departed="9" arrived="4" entered="240" left="240" laneChangedFrom="176" laneChangedTo="176"/>
        <edge id="-212055133" sampledSeconds="2054.41" traveltime="23.72" overlapTraveltime="24.20" density="2.37" laneDensity="2.37" occupancy="1.16" waitingTime="0.00" timeLoss="160.02" speed="10.15" speedRelative="0.91" departed="4" arrived="1" entered="81" left="83" laneChangedFrom="0" laneChangedTo="0"/>
        <edge id="-222105714" sampledSeconds="2463.40" traveltime="5.94" overlapTraveltime="6.78" density="17.78" laneDensity="8.89" occupancy="4.03" waitingTime="268.00" timeLoss="1885.62" speed="6.42" speedRelative="0.23" departed="6" arrived="4" entered="359" left="360" laneChangedFrom="8" laneChangedTo="8"/>